
                                 *****************
                                 * O   R   C   A *
                                 *****************

                                            #,                                       
                                            ###                                      
                                            ####                                     
                                            #####                                    
                                            ######                                   
                                           ########,                                 
                                     ,,################,,,,,                         
                               ,,#################################,,                 
                          ,,##########################################,,             
                       ,#########################################, ''#####,          
                    ,#############################################,,   '####,        
                  ,##################################################,,,,####,       
                ,###########''''           ''''###############################       
              ,#####''   ,,,,##########,,,,          '''####'''          '####       
            ,##' ,,,,###########################,,,                        '##       
           ' ,,###''''                  '''############,,,                           
         ,,##''                                '''############,,,,        ,,,,,,###''
      ,#''                                            '''#######################'''  
     '                                                          ''''####''''         
             ,#######,   #######,   ,#######,      ##                                
            ,#'     '#,  ##    ##  ,#'     '#,    #''#        ######   ,####,        
            ##       ##  ##   ,#'  ##            #'  '#       #        #'  '#        
            ##       ##  #######   ##           ,######,      #####,   #    #        
            '#,     ,#'  ##    ##  '#,     ,#' ,#      #,         ##   #,  ,#        
             '#######'   ##     ##  '#######'  #'      '#     #####' # '####'        



                  #######################################################
                  #                        -***-                        #
                  #          Department of theory and spectroscopy      #
                  #    Directorship and core code : Frank Neese         #
                  #        Max Planck Institute fuer Kohlenforschung    #
                  #                Kaiser Wilhelm Platz 1               #
                  #                 D-45470 Muelheim/Ruhr               #
                  #                      Germany                        #
                  #                                                     #
                  #                  All rights reserved                #
                  #                        -***-                        #
                  #######################################################


                         Program Version 5.0.4 -  RELEASE  -


 With contributions from (in alphabetic order):
   Daniel Aravena         : Magnetic Suceptibility
   Michael Atanasov       : Ab Initio Ligand Field Theory (pilot matlab implementation)
   Alexander A. Auer      : GIAO ZORA, VPT2 properties, NMR spectrum
   Ute Becker             : Parallelization
   Giovanni Bistoni       : ED, misc. LED, open-shell LED, HFLD
   Martin Brehm           : Molecular dynamics
   Dmytro Bykov           : SCF Hessian
   Vijay G. Chilkuri      : MRCI spin determinant printing, contributions to CSF-ICE
   Dipayan Datta          : RHF DLPNO-CCSD density
   Achintya Kumar Dutta   : EOM-CC, STEOM-CC
   Dmitry Ganyushin       : Spin-Orbit,Spin-Spin,Magnetic field MRCI
   Miquel Garcia          : C-PCM and meta-GGA Hessian, CC/C-PCM, Gaussian charge scheme
   Yang Guo               : DLPNO-NEVPT2, F12-NEVPT2, CIM, IAO-localization
   Andreas Hansen         : Spin unrestricted coupled pair/coupled cluster methods
   Benjamin Helmich-Paris : MC-RPA, TRAH-SCF, COSX integrals
   Lee Huntington         : MR-EOM, pCC
   Robert Izsak           : Overlap fitted RIJCOSX, COSX-SCS-MP3, EOM
   Marcus Kettner         : VPT2
   Christian Kollmar      : KDIIS, OOCD, Brueckner-CCSD(T), CCSD density, CASPT2, CASPT2-K
   Simone Kossmann        : Meta GGA functionals, TD-DFT gradient, OOMP2, MP2 Hessian
   Martin Krupicka        : Initial AUTO-CI
   Lucas Lang             : DCDCAS
   Marvin Lechner         : AUTO-CI (C++ implementation), FIC-MRCC
   Dagmar Lenk            : GEPOL surface, SMD
   Dimitrios Liakos       : Extrapolation schemes; Compound Job, initial MDCI parallelization
   Dimitrios Manganas     : Further ROCIS development; embedding schemes
   Dimitrios Pantazis     : SARC Basis sets
   Anastasios Papadopoulos: AUTO-CI, single reference methods and gradients
   Taras Petrenko         : DFT Hessian,TD-DFT gradient, ASA, ECA, R-Raman, ABS, FL, XAS/XES, NRVS
   Peter Pinski           : DLPNO-MP2, DLPNO-MP2 Gradient
   Christoph Reimann      : Effective Core Potentials
   Marius Retegan         : Local ZFS, SOC
   Christoph Riplinger    : Optimizer, TS searches, QM/MM, DLPNO-CCSD(T), (RO)-DLPNO pert. Triples
   Tobias Risthaus        : Range-separated hybrids, TD-DFT gradient, RPA, STAB
   Michael Roemelt        : Original ROCIS implementation
   Masaaki Saitow         : Open-shell DLPNO-CCSD energy and density
   Barbara Sandhoefer     : DKH picture change effects
   Avijit Sen             : IP-ROCIS
   Kantharuban Sivalingam : CASSCF convergence, NEVPT2, FIC-MRCI
   Bernardo de Souza      : ESD, SOC TD-DFT
   Georgi Stoychev        : AutoAux, RI-MP2 NMR, DLPNO-MP2 response
   Willem Van den Heuvel  : Paramagnetic NMR
   Boris Wezisla          : Elementary symmetry handling
   Frank Wennmohs         : Technical directorship


 We gratefully acknowledge several colleagues who have allowed us to
 interface, adapt or use parts of their codes:
   Stefan Grimme, W. Hujo, H. Kruse, P. Pracht,  : VdW corrections, initial TS optimization,
                  C. Bannwarth, S. Ehlert          DFT functionals, gCP, sTDA/sTD-DF
   Ed Valeev, F. Pavosevic, A. Kumar             : LibInt (2-el integral package), F12 methods
   Garnet Chan, S. Sharma, J. Yang, R. Olivares  : DMRG
   Ulf Ekstrom                                   : XCFun DFT Library
   Mihaly Kallay                                 : mrcc  (arbitrary order and MRCC methods)
   Jiri Pittner, Ondrej Demel                    : Mk-CCSD
   Frank Weinhold                                : gennbo (NPA and NBO analysis)
   Christopher J. Cramer and Donald G. Truhlar   : smd solvation model
   Lars Goerigk                                  : TD-DFT with DH, B97 family of functionals
   V. Asgeirsson, H. Jonsson                     : NEB implementation
   FAccTs GmbH                                   : IRC, NEB, NEB-TS, DLPNO-Multilevel, CI-OPT
                                                   MM, QMMM, 2- and 3-layer-ONIOM, Crystal-QMMM,
                                                   LR-CPCM, SF, NACMEs, symmetry and pop. for TD-DFT,
                                                   nearIR, NL-DFT gradient (VV10), updates on ESD,
                                                   ML-optimized integration grids
   S Lehtola, MJT Oliveira, MAL Marques          : LibXC Library
   Liviu Ungur et al                             : ANISO software


 Your calculation uses the libint2 library for the computation of 2-el integrals
 For citations please refer to: http://libint.valeyev.net

 Your ORCA version has been built with support for libXC version: 5.1.0
 For citations please refer to: https://tddft.org/programs/libxc/

 This ORCA versions uses:
   CBLAS   interface :  Fast vector & matrix operations
   LAPACKE interface :  Fast linear algebra routines
   SCALAPACK package :  Parallel linear algebra routines
   Shared memory     :  Shared parallel matrices
   BLAS/LAPACK       :  OpenBLAS 0.3.15  USE64BITINT DYNAMIC_ARCH NO_AFFINITY SkylakeX SINGLE_THREADED
        Core in use  :  SkylakeX
   Copyright (c) 2011-2014, The OpenBLAS Project


================================================================================

----- Orbital basis set information -----
Your calculation utilizes the basis: aug-cc-pVTZ-J 
  Obtained from the EMSL Basis Set Exchange (bse.pnl.gov) Feb. 2017
  H, C-O : P. F. Provasi, G. A. Aucar, S. P. A. Sauer, J. Chem. Phys. 115, 1324 (2001)
           R. A. Kendall, T. H. Dunning, Jr., R. J. Harrison, J. Chem. Phys. 96, 6796 (1992)
           T. Enevoldsen, J. Oddershede, S. P. A. Sauer, Theor. Chem. Acc. 100, 275 (1998)
           T. H. Dunning, Jr., J. Chem. Phys. 90, 1007 (1989)
       B : P. F. Provasi, S. P. A. Sauer, J. Chem. Phys. 133, 054308 (2010)
           T. Enevoldsen, J. Oddershede, S. P. A. Sauer, Theor. Chem. Acc. 100, 275 (1998)
           T. H. Dunning, Jr., J. Chem. Phys. 90, 1007 (1989)
       F : R. A. Kendall, T. H. Dunning, Jr., R. J. Harrison, J. Chem. Phys. 96, 6796 (1992)
           T. Enevoldsen, J. Oddershede, S. P. A. Sauer, Theor. Chem. Acc. 100, 275 (1998)
           T. H. Dunning, Jr., J. Chem. Phys. 90, 1007 (1989)
           V. Barone, P. F. Provasi, J. E. Peralta, J. P. Snyder, S. P. A. Sauer, R. H. Contreras, J. Phys. Chem. A 107, 4748 (2003)
      Al : D. E. Woon, T. H. Dunning, Jr., J. Chem. Phys. 98, 1358 (1993)
           P. F. Provasi, S. P. A. Sauer, J. Chem. Phys. 133, 054308 (2010)
           T. Enevoldsen, J. Oddershede, S. P. A. Sauer, Theor. Chem. Acc. 100, 275 (1998)
      Si : D. E. Woon, T. H. Dunning, Jr., J. Chem. Phys. 98, 1358 (1993)
           P. F. Provasi, S. P. A. Sauer, J. Chem. Phys. 133, 054308 (2010)
           S. P. A. Sauer, W. T. Raynes, J. Chem. Phys. 113, 3121 (2000)
           S. P. A. Sauer, W. T. Raynes, R. A. Nicholls, J. Chem. Phys. 115, 5994 (2001)
   P, Cl : D. E. Woon, T. H. Dunning, Jr., J. Chem. Phys. 98, 1358 (1993)
           P. F. Provasi, S. P. A. Sauer, J. Chem. Phys. 133, 054308 (2010)
       S : D. E. Woon, T. H. Dunning, Jr., J. Chem. Phys. 98, 1358 (1993)
           P. F. Provasi, G. A. Aucar, S. P. A. Sauer, J. Chem. Phys. 115, 1324 (2001)
   Sc-Zn : E. D. Hedegård, J. Kongsted, S. P. A. Sauer, J. Chem. Theory Comput. 7, 4077 (2011)
           N. B. Balabanov, K. A. Peterson, J. Chem. Phys. 123, 64107 (2005)
      Se : Y. Yu. Rusakov, L. B. Krivdin, S. P. A. Sauer, E. P. Levanova, G. G. Levkovskaya, Magn. Res. Chem. 48, 44-52 (2010)

================================================================================
                                        WARNINGS
                       Please study these warnings very carefully!
================================================================================


WARNING: Geometry Optimization
  ===> : Switching off AutoStart
         For restart on a previous wavefunction, please use MOREAD

INFO   : the flag for use of the SHARK integral package has been found!



***************************************
The coordinates will be read from file: 
***************************************


================================================================================

----- Orbital basis set information -----
Your calculation utilizes the basis: aug-cc-pVTZ-J 
  Obtained from the EMSL Basis Set Exchange (bse.pnl.gov) Feb. 2017
  H, C-O : P. F. Provasi, G. A. Aucar, S. P. A. Sauer, J. Chem. Phys. 115, 1324 (2001)
           R. A. Kendall, T. H. Dunning, Jr., R. J. Harrison, J. Chem. Phys. 96, 6796 (1992)
           T. Enevoldsen, J. Oddershede, S. P. A. Sauer, Theor. Chem. Acc. 100, 275 (1998)
           T. H. Dunning, Jr., J. Chem. Phys. 90, 1007 (1989)
       B : P. F. Provasi, S. P. A. Sauer, J. Chem. Phys. 133, 054308 (2010)
           T. Enevoldsen, J. Oddershede, S. P. A. Sauer, Theor. Chem. Acc. 100, 275 (1998)
           T. H. Dunning, Jr., J. Chem. Phys. 90, 1007 (1989)
       F : R. A. Kendall, T. H. Dunning, Jr., R. J. Harrison, J. Chem. Phys. 96, 6796 (1992)
           T. Enevoldsen, J. Oddershede, S. P. A. Sauer, Theor. Chem. Acc. 100, 275 (1998)
           T. H. Dunning, Jr., J. Chem. Phys. 90, 1007 (1989)
           V. Barone, P. F. Provasi, J. E. Peralta, J. P. Snyder, S. P. A. Sauer, R. H. Contreras, J. Phys. Chem. A 107, 4748 (2003)
      Al : D. E. Woon, T. H. Dunning, Jr., J. Chem. Phys. 98, 1358 (1993)
           P. F. Provasi, S. P. A. Sauer, J. Chem. Phys. 133, 054308 (2010)
           T. Enevoldsen, J. Oddershede, S. P. A. Sauer, Theor. Chem. Acc. 100, 275 (1998)
      Si : D. E. Woon, T. H. Dunning, Jr., J. Chem. Phys. 98, 1358 (1993)
           P. F. Provasi, S. P. A. Sauer, J. Chem. Phys. 133, 054308 (2010)
           S. P. A. Sauer, W. T. Raynes, J. Chem. Phys. 113, 3121 (2000)
           S. P. A. Sauer, W. T. Raynes, R. A. Nicholls, J. Chem. Phys. 115, 5994 (2001)
   P, Cl : D. E. Woon, T. H. Dunning, Jr., J. Chem. Phys. 98, 1358 (1993)
           P. F. Provasi, S. P. A. Sauer, J. Chem. Phys. 133, 054308 (2010)
       S : D. E. Woon, T. H. Dunning, Jr., J. Chem. Phys. 98, 1358 (1993)
           P. F. Provasi, G. A. Aucar, S. P. A. Sauer, J. Chem. Phys. 115, 1324 (2001)
   Sc-Zn : E. D. Hedegård, J. Kongsted, S. P. A. Sauer, J. Chem. Theory Comput. 7, 4077 (2011)
           N. B. Balabanov, K. A. Peterson, J. Chem. Phys. 123, 64107 (2005)
      Se : Y. Yu. Rusakov, L. B. Krivdin, S. P. A. Sauer, E. P. Levanova, G. G. Levkovskaya, Magn. Res. Chem. 48, 44-52 (2010)

================================================================================
                                        WARNINGS
                       Please study these warnings very carefully!
================================================================================


INFO   : the flag for use of the SHARK integral package has been found!

================================================================================
                                       INPUT FILE
================================================================================
NAME = /beegfs/scratch/jdstates/Radical_Geometry/CX3_geometry_calcs/input_files/CX3_radical/C-F-F-H_radical_IN-PROGRESS/C-F-F-H_radical.inp
|  1> # Formula: C-F-F-H_radical
|  2> 
|  3> ! UKS NORI TightSCF PBE0 aug-cc-PVTZ-J xyzfile opt NOPOP
|  4> %base "C-F-F-H_radical_opt" 
|  5> 
|  6> * xyz 0 2
|  7> C	-0.001	0.071	0.318
|  8> F	1.156	-0.568	-0.097
|  9> F	-1.134	-0.601	-0.097
| 10> H	-0.021	1.098	-0.124
| 11> *
| 12> 
| 13> $new_job
| 14> ! UKS NORI PBE0 aug-cc-PVTZ-J NBO
| 15> %base "C-F-F-H_radical_EPR"
| 16> 
| 17> *xyzfile 0 2
| 18> 
| 19> %EPRNMR
| 20> 	GTENSOR		TRUE
| 21> 	NUCLEI		= ALL C  {AISO, ADIP, AORB}
| 22> 	NUCLEI		= ALL H  {AISO, ADIP, AORB}
| 23> 	NUCLEI		= ALL F  {AISO, ADIP, AORB}
| 24> 	NUCLEI		= ALL Cl {AISO, ADIP, AORB}
| 25> 	NUCLEI		= ALL Br {AISO, ADIP, AORB}
| 26> 	NUCLEI		= ALL I  {AISO, ADIP, AORB}
| 27> END
| 28> 
| 29> %NBO
| 30> 	NBOKEYLIST = "$NBO NBO NPA AONBO=C PRINT=1 ARCHIVE $END"
| 31> END
| 32> 
| 33>                          ****END OF INPUT****
================================================================================


                 $$$$$$$$$$$$$$$$$$$$$$$$$$$$$$$$$$$$$$$$$$$$$$ 
                 $ THERE ARE  2 JOBS TO BE PROCESSED THIS RUN $
                 $$$$$$$$$$$$$$$$$$$$$$$$$$$$$$$$$$$$$$$$$$$$$$ 




                 $$$$$$$$$$$$$$$$  JOB NUMBER  1 $$$$$$$$$$$$$$


                       *****************************
                       * Geometry Optimization Run *
                       *****************************

Geometry optimization settings:
Update method            Update   .... BFGS
Choice of coordinates    CoordSys .... Z-matrix Internals
Initial Hessian          InHess   .... Almoef's Model

Convergence Tolerances:
Energy Change            TolE     ....  5.0000e-06 Eh
Max. Gradient            TolMAXG  ....  3.0000e-04 Eh/bohr
RMS Gradient             TolRMSG  ....  1.0000e-04 Eh/bohr
Max. Displacement        TolMAXD  ....  4.0000e-03 bohr
RMS Displacement         TolRMSD  ....  2.0000e-03 bohr
Strict Convergence                ....  False
------------------------------------------------------------------------------
                        ORCA OPTIMIZATION COORDINATE SETUP
------------------------------------------------------------------------------

The optimization will be done in new redundant internal coordinates
Making redundant internal coordinates   ...  (new redundants) done
Evaluating the initial hessian          ...  (Almloef) done
Evaluating the coordinates              ...  done
Calculating the B-matrix                .... done
Calculating the G-matrix                .... done
Diagonalizing the G-matrix              .... done
The first mode is                       ....    1
The number of degrees of freedom        ....    6

    -----------------------------------------------------------------
                    Redundant Internal Coordinates


    -----------------------------------------------------------------
         Definition                    Initial Value    Approx d2E/dq
    -----------------------------------------------------------------
      1. B(F   1,C   0)                  1.3854         0.528914   
      2. B(F   2,C   0)                  1.3811         0.537194   
      3. B(H   3,C   0)                  1.1183         0.324597   
      4. A(F   1,C   0,H   3)          108.6718         0.334252   
      5. A(F   2,C   0,H   3)          108.2652         0.335115   
      6. A(F   1,C   0,F   2)          111.7579         0.402437   
      7. I(F   1,H   3,F   2,C   0)    -53.8173         0.007973   
    -----------------------------------------------------------------

Number of atoms                         .... 4
Number of degrees of freedom            .... 7

         *************************************************************
         *                GEOMETRY OPTIMIZATION CYCLE   1            *
         *************************************************************
---------------------------------
CARTESIAN COORDINATES (ANGSTROEM)
---------------------------------
  C     -0.001000    0.071000    0.318000
  F      1.156000   -0.568000   -0.097000
  F     -1.134000   -0.601000   -0.097000
  H     -0.021000    1.098000   -0.124000

----------------------------
CARTESIAN COORDINATES (A.U.)
----------------------------
  NO LB      ZA    FRAG     MASS         X           Y           Z
   0 C     6.0000    0    12.011   -0.001890    0.134171    0.600933
   1 F     9.0000    0    18.998    2.184523   -1.073364   -0.183303
   2 F     9.0000    0    18.998   -2.142949   -1.135725   -0.183303
   3 H     1.0000    0     1.008   -0.039684    2.074919   -0.234326

--------------------------------
INTERNAL COORDINATES (ANGSTROEM)
--------------------------------
 C      0   0   0     0.000000000000     0.00000000     0.00000000
 F      1   0   0     1.385350136247     0.00000000     0.00000000
 F      1   2   0     1.381122007645   111.75794872     0.00000000
 H      1   2   3     1.118254443318   108.67179978   240.58836146

---------------------------
INTERNAL COORDINATES (A.U.)
---------------------------
 C      0   0   0     0.000000000000     0.00000000     0.00000000
 F      1   0   0     2.617932357098     0.00000000     0.00000000
 F      1   2   0     2.609942351980   111.75794872     0.00000000
 H      1   2   3     2.113194645911   108.67179978   240.58836146

---------------------
BASIS SET INFORMATION
---------------------
There are 3 groups of distinct atoms

 Group   1 Type C   : 15s6p3d1f contracted to 9s5p3d1f pattern {711111111/21111/111/1}
 Group   2 Type F   : 15s6p3d1f contracted to 9s5p3d1f pattern {711111111/21111/111/1}
 Group   3 Type H   : 10s3p1d contracted to 6s3p1d pattern {511111/111/1}

Atom   0C    basis set group =>   1
Atom   1F    basis set group =>   2
Atom   2F    basis set group =>   2
Atom   3H    basis set group =>   3
------------------------------------------------------------------------------
                           ORCA GTO INTEGRAL CALCULATION
------------------------------------------------------------------------------
------------------------------------------------------------------------------
                   ___                                                        
                  /   \      - P O W E R E D   B Y -                         
                 /     \                                                     
                 |  |  |   _    _      __       _____    __    __             
                 |  |  |  | |  | |    /  \     |  _  \  |  |  /  |          
                  \  \/   | |  | |   /    \    | | | |  |  | /  /          
                 / \  \   | |__| |  /  /\  \   | |_| |  |  |/  /          
                |  |  |   |  __  | /  /__\  \  |    /   |      \           
                |  |  |   | |  | | |   __   |  |    \   |  |\   \          
                \     /   | |  | | |  |  |  |  | |\  \  |  | \   \       
                 \___/    |_|  |_| |__|  |__|  |_| \__\ |__|  \__/        
                                                                              
                      - O R C A' S   B I G   F R I E N D -                    
                                      &                                       
                       - I N T E G R A L  F E E D E R -                       
                                                                              
 v1 FN, 2020, v2 2021                                                         
------------------------------------------------------------------------------


Reading SHARK input file C-F-F-H_radical_opt.SHARKINP.tmp ... ok
----------------------
SHARK INTEGRAL PACKAGE
----------------------

Number of atoms                             ...      4
Number of basis functions                   ...    158
Number of shells                            ...     64
Maximum angular momentum                    ...      3
Integral batch strategy                     ... SHARK/LIBINT Hybrid
RI-J (if used) integral strategy            ... SPLIT-RIJ (Revised 2003 algorithm where possible)
Printlevel                                  ...      1
Contraction scheme used                     ... SEGMENTED contraction
Coulomb Range Separation                    ... NOT USED
Exchange Range Separation                   ... NOT USED
Finite Nucleus Model                        ... NOT USED
Auxiliary Coulomb fitting basis             ... NOT available
Auxiliary J/K fitting basis                 ... NOT available
Auxiliary Correlation fitting basis         ... NOT available
Auxiliary 'external' fitting basis          ... NOT available
Integral threshold                          ...     2.500000e-11
Primitive cut-off                           ...     2.500000e-12
Primitive pair pre-selection threshold      ...     2.500000e-12

Calculating pre-screening integrals         ... done (  0.0 sec) Dimension = 64
Organizing shell pair data                  ... done (  0.0 sec)
Shell pair information
Total number of shell pairs                 ...      2080
Shell pairs after pre-screening             ...      1916
Total number of primitive shell pairs       ...      4081
Primitive shell pairs kept                  ...      3273
          la=0 lb=0:    460 shell pairs
          la=1 lb=0:    556 shell pairs
          la=1 lb=1:    168 shell pairs
          la=2 lb=0:    318 shell pairs
          la=2 lb=1:    178 shell pairs
          la=2 lb=2:     55 shell pairs
          la=3 lb=0:     91 shell pairs
          la=3 lb=1:     54 shell pairs
          la=3 lb=2:     30 shell pairs
          la=3 lb=3:      6 shell pairs

Calculating one electron integrals          ... done (  0.0 sec)
Calculating Nuclear repulsion               ... done (  0.0 sec) ENN=     67.551287873948 Eh

SHARK setup successfully completed in   0.2 seconds

Maximum memory used throughout the entire GTOINT-calculation: 22.9 MB
-------------------------------------------------------------------------------
                                 ORCA SCF
-------------------------------------------------------------------------------

------------
SCF SETTINGS
------------
Hamiltonian:
 Density Functional     Method          .... DFT(GTOs)
 Exchange Functional    Exchange        .... PBE
   PBE kappa parameter   XKappa         ....  0.804000
   PBE mue parameter    XMuePBE         ....  0.219520
 Correlation Functional Correlation     .... PBE
   PBE beta parameter  CBetaPBE         ....  0.066725
 LDA part of GGA corr.  LDAOpt          .... PW91-LDA
 Gradients option       PostSCFGGA      .... off
 Hybrid DFT is turned on
   Fraction HF Exchange ScalHFX         ....  0.250000
   Scaling of DF-GGA-X  ScalDFX         ....  0.750000
   Scaling of DF-GGA-C  ScalDFC         ....  1.000000
   Scaling of DF-LDA-C  ScalLDAC        ....  1.000000
   Perturbative correction              ....  0.000000
   Density functional embedding theory  .... OFF
   NL short-range parameter             ....  6.900000


General Settings:
 Integral files         IntName         .... C-F-F-H_radical_opt
 Hartree-Fock type      HFTyp           .... UHF
 Total Charge           Charge          ....    0
 Multiplicity           Mult            ....    2
 Number of Electrons    NEL             ....   25
 Basis Dimension        Dim             ....  158
 Nuclear Repulsion      ENuc            ....     67.5512878739 Eh

Convergence Acceleration:
 DIIS                   CNVDIIS         .... on
   Start iteration      DIISMaxIt       ....    12
   Startup error        DIISStart       ....  0.200000
   # of expansion vecs  DIISMaxEq       ....     5
   Bias factor          DIISBfac        ....   1.050
   Max. coefficient     DIISMaxC        ....  10.000
 Trust-Rad. Augm. Hess. CNVTRAH         .... auto
   Auto Start mean grad. ratio tolernc. ....  1.125000
   Auto Start start iteration           ....    20
   Auto Start num. interpolation iter.  ....    10
   Max. Number of Micro iterations      ....    16
   Max. Number of Macro iterations      .... Maxiter - #DIIS iter
   Number of Davidson start vectors     ....     2
   Converg. threshold I  (grad. norm)   ....   1.000e-05
   Converg. threshold II (energy diff.) ....   1.000e-08
   Grad. Scal. Fac. for Micro threshold ....   0.100
   Minimum threshold for Micro iter.    ....   0.010
   NR start threshold (gradient norm)   ....   0.001
   Initial trust radius                 ....   0.400
   Minimum AH scaling param. (alpha)    ....   1.000
   Maximum AH scaling param. (alpha)    .... 1000.000
   Orbital update algorithm             .... Taylor
   White noise on init. David. guess    .... on
   Maximum white noise                  ....   0.010
   Quad. conv. algorithm                .... NR
 SOSCF                  CNVSOSCF        .... off
 Level Shifting         CNVShift        .... on
   Level shift para.    LevelShift      ....    0.2500
   Turn off err/grad.   ShiftErr        ....    0.0010
 Zerner damping         CNVZerner       .... off
 Static damping         CNVDamp         .... on
   Fraction old density DampFac         ....    0.7000
   Max. Damping (<1)    DampMax         ....    0.9800
   Min. Damping (>=0)   DampMin         ....    0.0000
   Turn off err/grad.   DampErr         ....    0.1000
 Fernandez-Rico         CNVRico         .... off

SCF Procedure:
 Maximum # iterations   MaxIter         ....   125
 SCF integral mode      SCFMode         .... Direct
   Integral package                     .... SHARK and LIBINT hybrid scheme
 Reset frequency        DirectResetFreq ....    20
 Integral Threshold     Thresh          ....  2.500e-11 Eh
 Primitive CutOff       TCut            ....  2.500e-12 Eh

Convergence Tolerance:
 Convergence Check Mode ConvCheckMode   .... Total+1el-Energy
 Convergence forced     ConvForced      .... 0
 Energy Change          TolE            ....  1.000e-08 Eh
 1-El. energy change                    ....  1.000e-05 Eh
 DIIS Error             TolErr          ....  5.000e-07


Diagonalization of the overlap matrix:
Smallest eigenvalue                        ... 2.341e-04
Time for diagonalization                   ...    0.008 sec
Threshold for overlap eigenvalues          ... 1.000e-08
Number of eigenvalues below threshold      ... 0
Time for construction of square roots      ...    0.004 sec
Total time needed                          ...    0.012 sec

Time for model grid setup =    0.059 sec

------------------------------
INITIAL GUESS: MODEL POTENTIAL
------------------------------
Loading Hartree-Fock densities                     ... done
Calculating cut-offs                               ... done
Initializing the effective Hamiltonian             ... done
Setting up the integral package (SHARK)            ... done
Starting the Coulomb interaction                   ... done (   0.0 sec)
Reading the grid                                   ... done
Mapping shells                                     ... done
Starting the XC term evaluation                    ... done (   0.1 sec)
  promolecular density results
     # of electrons  =     24.998926145
     EX              =    -25.323836729
     EC              =     -0.842412428
     EX+EC           =    -26.166249157
Transforming the Hamiltonian                       ... done (   0.0 sec)
Diagonalizing the Hamiltonian                      ... done (   0.0 sec)
Back transforming the eigenvectors                 ... done (   0.0 sec)
Now organizing SCF variables                       ... done
                      ------------------
                      INITIAL GUESS DONE (   0.2 sec)
                      ------------------
-------------------
DFT GRID GENERATION
-------------------

General Integration Accuracy     IntAcc      ... 4.388
Radial Grid Type                 RadialGrid  ... OptM3 with GC (2021)
Angular Grid (max. ang.)         AngularGrid ... 4 (Lebedev-302)
Angular grid pruning method      GridPruning ... 4 (adaptive)
Weight generation scheme         WeightScheme... Becke
Basis function cutoff            BFCut       ... 1.0000e-11
Integration weight cutoff        WCut        ... 1.0000e-14
Angular grids for H and He will be reduced by one unit
Partially contracted basis set               ... off
Rotationally invariant grid construction     ... off

Total number of grid points                  ...    22875
Total number of batches                      ...      359
Average number of points per batch           ...       63
Average number of grid points per atom       ...     5719
Time for grid setup =    0.200 sec

--------------
SCF ITERATIONS
--------------
ITER       Energy         Delta-E        Max-DP      RMS-DP      [F,P]     Damp
               ***  Starting incremental Fock matrix formation  ***
  0   -238.1469294775   0.000000000000 0.01102985  0.00021310  0.0826902 0.7000
  1   -238.1585477527  -0.011618275217 0.00721983  0.00012833  0.0564330 0.7000
                               ***Turning on DIIS***
  2   -238.1631570134  -0.004609260671 0.01334570  0.00022575  0.0389165 0.0000
  3   -238.1733991839  -0.010242170442 0.00774249  0.00011024  0.0091193 0.0000
  4   -238.1740400983  -0.000640914431 0.00285822  0.00005000  0.0070151 0.0000
  5   -238.1744510732  -0.000410974889 0.00179841  0.00002445  0.0017583 0.0000
  6   -238.1744920228  -0.000040949588 0.00108509  0.00001992  0.0007568 0.0000
  7   -238.1745065613  -0.000014538550 0.00036949  0.00000549  0.0002847 0.0000
  8   -238.1745076556  -0.000001094324 0.00009062  0.00000123  0.0001043 0.0000
  9   -238.1745077274  -0.000000071734 0.00001548  0.00000047  0.0000592 0.0000
 10   -238.1745077371  -0.000000009731 0.00001001  0.00000026  0.0000412 0.0000
 11   -238.1745077444  -0.000000007287 0.00000412  0.00000008  0.0000103 0.0000
 12   -238.1745077444   0.000000000042 0.00000292  0.00000005  0.0000060 0.0000
                            ***DIIS convergence achieved***

               *****************************************************
               *                     SUCCESS                       *
               *           SCF CONVERGED AFTER  13 CYCLES          *
               *****************************************************


----------------
TOTAL SCF ENERGY
----------------

Total Energy       :         -238.17450774 Eh           -6481.05785 eV

Components:
Nuclear Repulsion  :           67.55128787 Eh            1838.16399 eV
Electronic Energy  :         -305.72579562 Eh           -8319.22184 eV
One Electron Energy:         -464.22468076 Eh          -12632.19577 eV
Two Electron Energy:          158.49888514 Eh            4312.97393 eV

Virial components:
Potential Energy   :         -475.32565887 Eh          -12934.26874 eV
Kinetic Energy     :          237.15115112 Eh            6453.21090 eV
Virial Ratio       :            2.00431521


DFT components:
N(Alpha)           :       12.999976782317 electrons
N(Beta)            :       11.999990832226 electrons
N(Total)           :       24.999967614543 electrons
E(X)               :      -19.152372121917 Eh       
E(C)               :       -0.838804871321 Eh       
E(XC)              :      -19.991176993238 Eh       
DFET-embed. en.    :        0.000000000000 Eh       

---------------
SCF CONVERGENCE
---------------

  Last Energy change         ...   -2.3488e-10  Tolerance :   1.0000e-08
  Last MAX-Density change    ...    1.9133e-06  Tolerance :   1.0000e-07
  Last RMS-Density change    ...    3.3814e-08  Tolerance :   5.0000e-09
  Last DIIS Error            ...    7.2131e-07  Tolerance :   5.0000e-07

             **** THE GBW FILE WAS UPDATED (C-F-F-H_radical_opt.gbw) ****
             **** DENSITY C-F-F-H_radical_opt.scfp WAS UPDATED ****
             **** ENERGY FILE WAS UPDATED (C-F-F-H_radical_opt.en.tmp) ****
----------------------
UHF SPIN CONTAMINATION
----------------------

Warning: in a DFT calculation there is little theoretical justification to 
         calculate <S**2> as in Hartree-Fock theory. We will do it anyways
         but you should keep in mind that the values have only limited relevance

Expectation value of <S**2>     :     0.752602
Ideal value S*(S+1) for S=0.5   :     0.750000
Deviation                       :     0.002602

             **** THE GBW FILE WAS UPDATED (C-F-F-H_radical_opt.gbw) ****
             **** DENSITY C-F-F-H_radical_opt.scfp WAS UPDATED ****
----------------
ORBITAL ENERGIES
----------------
                 SPIN UP ORBITALS
  NO   OCC          E(Eh)            E(eV) 
   0   1.0000     -24.816936      -675.3031 
   1   1.0000     -24.815921      -675.2755 
   2   1.0000     -10.420721      -283.5622 
   3   1.0000      -1.302582       -35.4450 
   4   1.0000      -1.256358       -34.1872 
   5   1.0000      -0.733989       -19.9729 
   6   1.0000      -0.585086       -15.9210 
   7   1.0000      -0.581057       -15.8114 
   8   1.0000      -0.540608       -14.7107 
   9   1.0000      -0.476715       -12.9721 
  10   1.0000      -0.452681       -12.3181 
  11   1.0000      -0.438511       -11.9325 
  12   1.0000      -0.291262        -7.9256 
  13   0.0000       0.001650         0.0449 
  14   0.0000       0.033297         0.9061 
  15   0.0000       0.033741         0.9181 
  16   0.0000       0.045495         1.2380 
  17   0.0000       0.091654         2.4940 
  18   0.0000       0.119137         3.2419 
  19   0.0000       0.125805         3.4233 
  20   0.0000       0.135174         3.6783 
  21   0.0000       0.146042         3.9740 
  22   0.0000       0.161462         4.3936 
  23   0.0000       0.164628         4.4798 
  24   0.0000       0.173065         4.7093 
  25   0.0000       0.206875         5.6293 
  26   0.0000       0.238809         6.4983 
  27   0.0000       0.269961         7.3460 
  28   0.0000       0.275276         7.4906 
  29   0.0000       0.281243         7.6530 
  30   0.0000       0.307353         8.3635 
  31   0.0000       0.308982         8.4078 
  32   0.0000       0.318212         8.6590 
  33   0.0000       0.353415         9.6169 
  34   0.0000       0.365615         9.9489 
  35   0.0000       0.411647        11.2015 
  36   0.0000       0.427859        11.6426 
  37   0.0000       0.486867        13.2483 
  38   0.0000       0.510973        13.9043 
  39   0.0000       0.569762        15.5040 
  40   0.0000       0.576737        15.6938 
  41   0.0000       0.765927        20.8419 
  42   0.0000       0.788340        21.4518 
  43   0.0000       0.800453        21.7814 
  44   0.0000       0.811530        22.0829 
  45   0.0000       0.845042        22.9948 
  46   0.0000       0.853686        23.2300 
  47   0.0000       0.883262        24.0348 
  48   0.0000       0.898091        24.4383 
  49   0.0000       0.933832        25.4109 
  50   0.0000       0.943999        25.6875 
  51   0.0000       0.964216        26.2376 
  52   0.0000       1.017230        27.6802 
  53   0.0000       1.026414        27.9301 
  54   0.0000       1.046518        28.4772 
  55   0.0000       1.103804        30.0360 
  56   0.0000       1.159490        31.5513 
  57   0.0000       1.175770        31.9943 
  58   0.0000       1.184166        32.2228 
  59   0.0000       1.283215        34.9181 
  60   0.0000       1.290735        35.1227 
  61   0.0000       1.330879        36.2150 
  62   0.0000       1.351122        36.7659 
  63   0.0000       1.430209        38.9180 
  64   0.0000       1.493181        40.6315 
  65   0.0000       1.516548        41.2674 
  66   0.0000       1.781532        48.4780 
  67   0.0000       1.785848        48.5954 
  68   0.0000       2.040712        55.5306 
  69   0.0000       2.151332        58.5407 
  70   0.0000       2.367641        64.4268 
  71   0.0000       2.384592        64.8880 
  72   0.0000       2.418617        65.8139 
  73   0.0000       2.433218        66.2112 
  74   0.0000       2.535703        69.0000 
  75   0.0000       2.561243        69.6950 
  76   0.0000       2.575829        70.0919 
  77   0.0000       2.587014        70.3962 
  78   0.0000       2.618048        71.2407 
  79   0.0000       2.641770        71.8862 
  80   0.0000       2.701645        73.5155 
  81   0.0000       2.825016        76.8726 
  82   0.0000       2.922332        79.5207 
  83   0.0000       2.998586        81.5957 
  84   0.0000       3.033316        82.5407 
  85   0.0000       3.119404        84.8833 
  86   0.0000       3.134194        85.2858 
  87   0.0000       3.186143        86.6994 
  88   0.0000       3.250255        88.4439 
  89   0.0000       3.358629        91.3929 
  90   0.0000       3.380868        91.9981 
  91   0.0000       3.433261        93.4238 
  92   0.0000       3.479144        94.6723 
  93   0.0000       3.520816        95.8063 
  94   0.0000       3.669324        99.8474 
  95   0.0000       3.719522       101.2133 
  96   0.0000       3.743049       101.8535 
  97   0.0000       3.968863       107.9982 
  98   0.0000       4.078975       110.9946 
  99   0.0000       4.498934       122.4222 
 100   0.0000       4.539658       123.5304 
 101   0.0000       4.598862       125.1414 
 102   0.0000       4.704943       128.0280 
 103   0.0000       4.716964       128.3551 
 104   0.0000       4.756622       129.4343 
 105   0.0000       4.857575       132.1813 
 106   0.0000       5.479695       149.1101 
 107   0.0000       5.548886       150.9929 
 108   0.0000       5.640690       153.4910 
 109   0.0000       6.464705       175.9136 
 110   0.0000       6.492083       176.6585 
 111   0.0000       6.848546       186.3584 
 112   0.0000       6.855585       186.5500 
 113   0.0000       6.860474       186.6830 
 114   0.0000       6.867090       186.8630 
 115   0.0000       6.893882       187.5921 
 116   0.0000       6.959617       189.3808 
 117   0.0000       6.974915       189.7971 
 118   0.0000       7.035605       191.4486 
 119   0.0000       7.242847       197.0879 
 120   0.0000       7.356729       200.1868 
 121   0.0000       7.381252       200.8541 
 122   0.0000       7.500607       204.1019 
 123   0.0000       7.574577       206.1147 
 124   0.0000       7.724052       210.1821 
 125   0.0000       8.733956       237.6630 
 126   0.0000       8.739335       237.8094 
 127   0.0000       8.750145       238.1036 
 128   0.0000       8.755624       238.2526 
 129   0.0000       8.781660       238.9611 
 130   0.0000       8.910205       242.4590 
 131   0.0000       8.915180       242.5944 
 132   0.0000       8.942841       243.3471 
 133   0.0000       8.996615       244.8103 
 134   0.0000       9.009143       245.1512 
 135   0.0000       9.112289       247.9580 
 136   0.0000       9.538886       259.5663 
 137   0.0000       9.880768       268.8694 
 138   0.0000      10.367576       282.1161 
 139   0.0000      12.073262       328.5302 
 140   0.0000      20.129826       547.7604 
 141   0.0000      20.148367       548.2649 
 142   0.0000      20.206176       549.8380 
 143   0.0000      20.216096       550.1079 
 144   0.0000      20.818556       566.5017 
 145   0.0000      20.871845       567.9518 
 146   0.0000      27.417607       746.0710 
 147   0.0000      27.448940       746.9236 
 148   0.0000      46.390596      1262.3523 
 149   0.0000      67.285135      1830.9216 
 150   0.0000     109.300118      2974.2074 
 151   0.0000     109.320089      2974.7509 
 152   0.0000     170.659093      4643.8700 
 153   0.0000     404.590702     11009.4727 
 154   0.0000     404.606355     11009.8986 
 155   0.0000     800.066358     21770.9124 
 156   0.0000    1899.533981     51688.9474 
 157   0.0000    1899.550308     51689.3917 

                 SPIN DOWN ORBITALS
  NO   OCC          E(Eh)            E(eV) 
   0   1.0000     -24.813303      -675.2043 
   1   1.0000     -24.812308      -675.1772 
   2   1.0000     -10.403607      -283.0965 
   3   1.0000      -1.293159       -35.1886 
   4   1.0000      -1.248376       -33.9700 
   5   1.0000      -0.708746       -19.2860 
   6   1.0000      -0.576736       -15.6938 
   7   1.0000      -0.568252       -15.4629 
   8   1.0000      -0.505812       -13.7639 
   9   1.0000      -0.457346       -12.4450 
  10   1.0000      -0.448746       -12.2110 
  11   1.0000      -0.428753       -11.6670 
  12   0.0000      -0.092944        -2.5291 
  13   0.0000       0.005899         0.1605 
  14   0.0000       0.037986         1.0336 
  15   0.0000       0.038352         1.0436 
  16   0.0000       0.059867         1.6291 
  17   0.0000       0.098606         2.6832 
  18   0.0000       0.134061         3.6480 
  19   0.0000       0.136574         3.7164 
  20   0.0000       0.144721         3.9380 
  21   0.0000       0.150684         4.1003 
  22   0.0000       0.166570         4.5326 
  23   0.0000       0.168096         4.5741 
  24   0.0000       0.181090         4.9277 
  25   0.0000       0.217398         5.9157 
  26   0.0000       0.239936         6.5290 
  27   0.0000       0.278558         7.5799 
  28   0.0000       0.284788         7.7495 
  29   0.0000       0.291386         7.9290 
  30   0.0000       0.315477         8.5846 
  31   0.0000       0.317239         8.6325 
  32   0.0000       0.331170         9.0116 
  33   0.0000       0.358833         9.7643 
  34   0.0000       0.370406        10.0793 
  35   0.0000       0.419341        11.4108 
  36   0.0000       0.436120        11.8674 
  37   0.0000       0.507950        13.8220 
  38   0.0000       0.531606        14.4657 
  39   0.0000       0.575089        15.6490 
  40   0.0000       0.586099        15.9486 
  41   0.0000       0.774401        21.0725 
  42   0.0000       0.802330        21.8325 
  43   0.0000       0.805263        21.9123 
  44   0.0000       0.825439        22.4613 
  45   0.0000       0.853958        23.2374 
  46   0.0000       0.855742        23.2859 
  47   0.0000       0.901513        24.5314 
  48   0.0000       0.907059        24.6823 
  49   0.0000       0.935779        25.4638 
  50   0.0000       0.949809        25.8456 
  51   0.0000       0.970126        26.3985 
  52   0.0000       1.030853        28.0509 
  53   0.0000       1.032800        28.1039 
  54   0.0000       1.051497        28.6127 
  55   0.0000       1.113712        30.3057 
  56   0.0000       1.185541        32.2602 
  57   0.0000       1.189107        32.3572 
  58   0.0000       1.190983        32.4083 
  59   0.0000       1.295691        35.2576 
  60   0.0000       1.303093        35.4590 
  61   0.0000       1.346836        36.6493 
  62   0.0000       1.363439        37.1011 
  63   0.0000       1.444874        39.3170 
  64   0.0000       1.505452        40.9654 
  65   0.0000       1.530394        41.6441 
  66   0.0000       1.789085        48.6835 
  67   0.0000       1.789746        48.7015 
  68   0.0000       2.070882        56.3516 
  69   0.0000       2.205403        60.0121 
  70   0.0000       2.377492        64.6949 
  71   0.0000       2.388924        65.0059 
  72   0.0000       2.434194        66.2378 
  73   0.0000       2.457543        66.8731 
  74   0.0000       2.544403        69.2367 
  75   0.0000       2.569742        69.9262 
  76   0.0000       2.588605        70.4395 
  77   0.0000       2.595225        70.6197 
  78   0.0000       2.623165        71.3799 
  79   0.0000       2.658069        72.3297 
  80   0.0000       2.715378        73.8892 
  81   0.0000       2.855356        77.6982 
  82   0.0000       2.947418        80.2033 
  83   0.0000       3.015724        82.0620 
  84   0.0000       3.081670        83.8565 
  85   0.0000       3.139786        85.4379 
  86   0.0000       3.158792        85.9551 
  87   0.0000       3.211772        87.3968 
  88   0.0000       3.308171        90.0199 
  89   0.0000       3.401349        92.5554 
  90   0.0000       3.405356        92.6644 
  91   0.0000       3.467804        94.3638 
  92   0.0000       3.493837        95.0721 
  93   0.0000       3.541842        96.3784 
  94   0.0000       3.690121       100.4133 
  95   0.0000       3.735818       101.6568 
  96   0.0000       3.764602       102.4400 
  97   0.0000       3.981994       108.3556 
  98   0.0000       4.088404       111.2511 
  99   0.0000       4.515232       122.8657 
 100   0.0000       4.544931       123.6739 
 101   0.0000       4.614074       125.5553 
 102   0.0000       4.722911       128.5169 
 103   0.0000       4.730380       128.7202 
 104   0.0000       4.764819       129.6573 
 105   0.0000       4.872815       132.5960 
 106   0.0000       5.486051       149.2830 
 107   0.0000       5.558947       151.2666 
 108   0.0000       5.660058       154.0180 
 109   0.0000       6.473532       176.1538 
 110   0.0000       6.499060       176.8484 
 111   0.0000       6.854727       186.5266 
 112   0.0000       6.862096       186.7271 
 113   0.0000       6.866889       186.8576 
 114   0.0000       6.873835       187.0466 
 115   0.0000       6.898919       187.7291 
 116   0.0000       6.964042       189.5012 
 117   0.0000       6.979819       189.9305 
 118   0.0000       7.041511       191.6092 
 119   0.0000       7.246135       197.1773 
 120   0.0000       7.363941       200.3830 
 121   0.0000       7.389722       201.0846 
 122   0.0000       7.506263       204.2558 
 123   0.0000       7.579327       206.2440 
 124   0.0000       7.733129       210.4291 
 125   0.0000       8.744471       237.9491 
 126   0.0000       8.750757       238.1202 
 127   0.0000       8.760600       238.3881 
 128   0.0000       8.767229       238.5684 
 129   0.0000       8.824541       240.1280 
 130   0.0000       8.922773       242.8010 
 131   0.0000       8.926373       242.8990 
 132   0.0000       8.948469       243.5002 
 133   0.0000       9.001169       244.9343 
 134   0.0000       9.015156       245.3149 
 135   0.0000       9.131422       248.4786 
 136   0.0000       9.551130       259.8994 
 137   0.0000       9.891410       269.1590 
 138   0.0000      10.381178       282.4862 
 139   0.0000      12.095881       329.1457 
 140   0.0000      20.139425       548.0216 
 141   0.0000      20.159343       548.5636 
 142   0.0000      20.209723       549.9345 
 143   0.0000      20.218337       550.1689 
 144   0.0000      20.821626       566.5852 
 145   0.0000      20.875289       568.0455 
 146   0.0000      27.423496       746.2313 
 147   0.0000      27.454681       747.0799 
 148   0.0000      46.408907      1262.8506 
 149   0.0000      67.293300      1831.1438 
 150   0.0000     109.304103      2974.3159 
 151   0.0000     109.324057      2974.8588 
 152   0.0000     170.669093      4644.1421 
 153   0.0000     404.592057     11009.5096 
 154   0.0000     404.607706     11009.9354 
 155   0.0000     800.072882     21771.0900 
 156   0.0000    1899.534442     51688.9600 
 157   0.0000    1899.550768     51689.4042 
-------
TIMINGS
-------

Total SCF time: 0 days 0 hours 0 min 30 sec 

Total time                  ....      30.288 sec
Sum of individual times     ....      29.885 sec  ( 98.7%)

Fock matrix formation       ....      29.134 sec  ( 96.2%)
  XC integration            ....       5.793 sec  ( 19.9% of F)
    Basis function eval.    ....       1.047 sec  ( 18.1% of XC)
    Density eval.           ....       1.373 sec  ( 23.7% of XC)
    XC-Functional eval.     ....       0.450 sec  (  7.8% of XC)
    XC-Potential eval.      ....       2.626 sec  ( 45.3% of XC)
Diagonalization             ....       0.193 sec  (  0.6%)
Density matrix formation    ....       0.009 sec  (  0.0%)
Population analysis         ....       0.001 sec  (  0.0%)
Initial guess               ....       0.106 sec  (  0.3%)
Orbital Transformation      ....       0.000 sec  (  0.0%)
Orbital Orthonormalization  ....       0.000 sec  (  0.0%)
DIIS solution               ....       0.182 sec  (  0.6%)
Grid generation             ....       0.260 sec  (  0.9%)

Maximum memory used throughout the entire SCF-calculation: 248.8 MB

-------------------------   --------------------
FINAL SINGLE POINT ENERGY      -238.174507744588
-------------------------   --------------------

------------------------------------------------------------------------------
                         ORCA SCF GRADIENT CALCULATION
------------------------------------------------------------------------------

Gradient of the Kohn-Sham DFT energy:
Kohn-Sham wavefunction type      ... UKS
Hartree-Fock exchange scaling    ...    0.250
Number of operators              ...    2
Number of atoms                  ...    4
Basis set dimensions             ...  158
Integral neglect threshold       ... 2.5e-11
Integral primitive cutoff        ... 2.5e-12
SHARK Integral package           ... ON

Nuc. rep. gradient       (SHARK) ... done (  0.0 sec)
HCore & Overlap gradient (SHARK) ... done (  0.0 sec)
Two-Electron gradient    (SHARK) ... done (  8.5 sec)
Exchange-correlation gradient    ... done

------------------
CARTESIAN GRADIENT
------------------

   1   C   :   -0.001218378    0.016343086    0.050430582
   2   F   :    0.041034669   -0.013836675   -0.017484351
   3   F   :   -0.038918617   -0.013459836   -0.017128699
   4   H   :   -0.000897673    0.010953426   -0.015817531

Difference to translation invariance:
           :   -0.0000000000    0.0000000000   -0.0000000000

Difference to rotation invariance:
           :   -0.0000911903    0.0000469368    0.0000220061

Norm of the cartesian gradient     ...    0.0857497557
RMS gradient                       ...    0.0247538223
MAX gradient                       ...    0.0504305820

-------
TIMINGS
-------

Total SCF gradient time            ...        9.659 sec

One electron gradient       ....       0.039 sec  (  0.4%)
Two electron gradient       ....       8.465 sec  ( 87.6%)
XC gradient                 ....       1.065 sec  ( 11.0%)

Maximum memory used throughout the entire SCFGRAD-calculation: 48.7 MB
------------------------------------------------------------------------------
                         ORCA GEOMETRY RELAXATION STEP
------------------------------------------------------------------------------

Reading the OPT-File                    .... done
Getting information on internals        .... done
Copying old internal coords+grads       .... done
Making the new internal coordinates     .... (new redundants).... done
Validating the new internal coordinates .... (new redundants).... done
Calculating the B-matrix                .... done
Calculating the G,G- and P matrices     .... done
Transforming gradient to internals      .... done
Projecting the internal gradient        .... done
Number of atoms                         ....   4
Number of internal coordinates          ....   7
Current Energy                          ....  -238.174507745 Eh
Current gradient norm                   ....     0.085749756 Eh/bohr
Maximum allowed component of the step   ....  0.300
Current trust radius                    ....  0.300
Evaluating the initial hessian          ....  (Almloef) done
Projecting the Hessian                  .... done
Forming the augmented Hessian           .... done
Diagonalizing the augmented Hessian     .... done
Last element of RFO vector              ....  0.985643600
Lowest eigenvalues of augmented Hessian:
 -0.010871257  0.119158235  0.325327992  0.335235481  0.373205703
Length of the computed step             ....  0.171298484
The final length of the internal step   ....  0.171298484
Converting the step to cartesian space:
 Initial RMS(Int)=    0.0647447411
Transforming coordinates:
 Iter   0:  RMS(Cart)=    0.0417549238 RMS(Int)=    0.0649979002
 Iter   1:  RMS(Cart)=    0.0020140328 RMS(Int)=    0.0025055792
 Iter   2:  RMS(Cart)=    0.0001039151 RMS(Int)=    0.0001338252
 Iter   3:  RMS(Cart)=    0.0000031060 RMS(Int)=    0.0000038308
 Iter   4:  RMS(Cart)=    0.0000002256 RMS(Int)=    0.0000002563
 Iter   5:  RMS(Cart)=    0.0000000117 RMS(Int)=    0.0000000146
done
Storing new coordinates                 .... done

                                .--------------------.
          ----------------------|Geometry convergence|-------------------------
          Item                value                   Tolerance       Converged
          ---------------------------------------------------------------------
          RMS gradient        0.0266998515            0.0001000000      NO
          MAX gradient        0.0458914944            0.0003000000      NO
          RMS step            0.0647447411            0.0020000000      NO
          MAX step            0.0850180122            0.0040000000      NO
          ........................................................
          Max(Bonds)      0.0450      Max(Angles)    3.66
          Max(Dihed)        0.00      Max(Improp)    4.41
          ---------------------------------------------------------------------

The optimization has not yet converged - more geometry cycles are needed


    ---------------------------------------------------------------------------
                         Redundant Internal Coordinates
                            (Angstroem and degrees)

        Definition                    Value    dE/dq     Step     New-Value
    ----------------------------------------------------------------------------
     1. B(F   1,C   0)                1.3854  0.045891 -0.0450    1.3404   
     2. B(F   2,C   0)                1.3811  0.043628 -0.0421    1.3390   
     3. B(H   3,C   0)                1.1183  0.016320 -0.0257    1.0925   
     4. A(F   1,C   0,H   3)          108.67 -0.012502    3.29    111.96   
     5. A(F   2,C   0,H   3)          108.27 -0.018256    3.66    111.92   
     6. A(F   1,C   0,F   2)          111.76  0.011948   -0.58    111.18   
     7. I(F   1,H   3,F   2,C   0)    -53.82 -0.009058    4.41    -49.40   
    ----------------------------------------------------------------------------

         *************************************************************
         *                GEOMETRY OPTIMIZATION CYCLE   2            *
         *************************************************************
---------------------------------
CARTESIAN COORDINATES (ANGSTROEM)
---------------------------------
  C     -0.001631    0.077581    0.276060
  F      1.114129   -0.571423   -0.085105
  F     -1.094266   -0.607102   -0.084873
  H     -0.018233    1.100944   -0.106082

----------------------------
CARTESIAN COORDINATES (A.U.)
----------------------------
  NO LB      ZA    FRAG     MASS         X           Y           Z
   0 C     6.0000    0    12.011   -0.003082    0.146607    0.521677
   1 F     9.0000    0    18.998    2.105399   -1.079832   -0.160826
   2 F     9.0000    0    18.998   -2.067862   -1.147257   -0.160386
   3 H     1.0000    0     1.008   -0.034456    2.080482   -0.200466

--------------------------------
INTERNAL COORDINATES (ANGSTROEM)
--------------------------------
 C      0   0   0     0.000000000000     0.00000000     0.00000000
 F      1   0   0     1.340360542169     0.00000000     0.00000000
 F      1   2   0     1.338997527857   111.04183299     0.00000000
 H      1   2   3     1.092510679676   111.83619526   234.27663031

---------------------------
INTERNAL COORDINATES (A.U.)
---------------------------
 C      0   0   0     0.000000000000     0.00000000     0.00000000
 F      1   0   0     2.532914345413     0.00000000     0.00000000
 F      1   2   0     2.530338621646   111.04183299     0.00000000
 H      1   2   3     2.064545982971   111.83619526   234.27663031

------------------------------------------------------------------------------
                   ___                                                        
                  /   \      - P O W E R E D   B Y -                         
                 /     \                                                     
                 |  |  |   _    _      __       _____    __    __             
                 |  |  |  | |  | |    /  \     |  _  \  |  |  /  |          
                  \  \/   | |  | |   /    \    | | | |  |  | /  /          
                 / \  \   | |__| |  /  /\  \   | |_| |  |  |/  /          
                |  |  |   |  __  | /  /__\  \  |    /   |      \           
                |  |  |   | |  | | |   __   |  |    \   |  |\   \          
                \     /   | |  | | |  |  |  |  | |\  \  |  | \   \       
                 \___/    |_|  |_| |__|  |__|  |_| \__\ |__|  \__/        
                                                                              
                      - O R C A' S   B I G   F R I E N D -                    
                                      &                                       
                       - I N T E G R A L  F E E D E R -                       
                                                                              
 v1 FN, 2020, v2 2021                                                         
------------------------------------------------------------------------------


Reading SHARK input file C-F-F-H_radical_opt.SHARKINP.tmp ... ok
----------------------
SHARK INTEGRAL PACKAGE
----------------------

Number of atoms                             ...      4
Number of basis functions                   ...    158
Number of shells                            ...     64
Maximum angular momentum                    ...      3
Integral batch strategy                     ... SHARK/LIBINT Hybrid
RI-J (if used) integral strategy            ... SPLIT-RIJ (Revised 2003 algorithm where possible)
Printlevel                                  ...      1
Contraction scheme used                     ... SEGMENTED contraction
Coulomb Range Separation                    ... NOT USED
Exchange Range Separation                   ... NOT USED
Finite Nucleus Model                        ... NOT USED
Auxiliary Coulomb fitting basis             ... NOT available
Auxiliary J/K fitting basis                 ... NOT available
Auxiliary Correlation fitting basis         ... NOT available
Auxiliary 'external' fitting basis          ... NOT available
Integral threshold                          ...     2.500000e-11
Primitive cut-off                           ...     2.500000e-12
Primitive pair pre-selection threshold      ...     2.500000e-12

Calculating pre-screening integrals         ... done (  0.0 sec) Dimension = 64
Organizing shell pair data                  ... done (  0.0 sec)
Shell pair information
Total number of shell pairs                 ...      2080
Shell pairs after pre-screening             ...      1922
Total number of primitive shell pairs       ...      4081
Primitive shell pairs kept                  ...      3291
          la=0 lb=0:    462 shell pairs
          la=1 lb=0:    558 shell pairs
          la=1 lb=1:    168 shell pairs
          la=2 lb=0:    318 shell pairs
          la=2 lb=1:    178 shell pairs
          la=2 lb=2:     55 shell pairs
          la=3 lb=0:     93 shell pairs
          la=3 lb=1:     54 shell pairs
          la=3 lb=2:     30 shell pairs
          la=3 lb=3:      6 shell pairs

Calculating one electron integrals          ... done (  0.0 sec)
Calculating Nuclear repulsion               ... done (  0.0 sec) ENN=     69.690343061567 Eh

SHARK setup successfully completed in   0.2 seconds

Maximum memory used throughout the entire GTOINT-calculation: 23.0 MB

Diagonalization of the overlap matrix:
Smallest eigenvalue                        ... 2.074e-04
Time for diagonalization                   ...    0.008 sec
Threshold for overlap eigenvalues          ... 1.000e-08
Number of eigenvalues below threshold      ... 0
Time for construction of square roots      ...    0.003 sec
Total time needed                          ...    0.011 sec

-------------------
DFT GRID GENERATION
-------------------

General Integration Accuracy     IntAcc      ... 4.388
Radial Grid Type                 RadialGrid  ... OptM3 with GC (2021)
Angular Grid (max. ang.)         AngularGrid ... 4 (Lebedev-302)
Angular grid pruning method      GridPruning ... 4 (adaptive)
Weight generation scheme         WeightScheme... Becke
Basis function cutoff            BFCut       ... 1.0000e-11
Integration weight cutoff        WCut        ... 1.0000e-14
Angular grids for H and He will be reduced by one unit
Partially contracted basis set               ... off
Rotationally invariant grid construction     ... off

Total number of grid points                  ...    22862
Total number of batches                      ...      359
Average number of points per batch           ...       63
Average number of grid points per atom       ...     5716
Time for grid setup =    0.204 sec

--------------
SCF ITERATIONS
--------------
ITER       Energy         Delta-E        Max-DP      RMS-DP      [F,P]     Damp
               ***  Starting incremental Fock matrix formation  ***
  0   -238.1787262081   0.000000000000 0.00306048  0.00005740  0.0122722 0.7000
  1   -238.1795952424  -0.000869034291 0.00310672  0.00005317  0.0085324 0.7000
                               ***Turning on DIIS***
  2   -238.1802526830  -0.000657440678 0.00908019  0.00014154  0.0059391 0.0000
  3   -238.1819132343  -0.001660551221 0.00245361  0.00002964  0.0012609 0.0000
  4   -238.1819528717  -0.000039637404 0.00132684  0.00002000  0.0005672 0.0000
  5   -238.1819628208  -0.000009949119 0.00037805  0.00000539  0.0002127 0.0000
  6   -238.1819635720  -0.000000751188 0.00005413  0.00000169  0.0002005 0.0000
  7   -238.1819638332  -0.000000261216 0.00003149  0.00000073  0.0000542 0.0000
  8   -238.1819638625  -0.000000029297 0.00000669  0.00000014  0.0000079 0.0000
                 **** Energy Check signals convergence ****

               *****************************************************
               *                     SUCCESS                       *
               *           SCF CONVERGED AFTER   9 CYCLES          *
               *****************************************************

Total Energy       :         -238.18196386 Eh           -6481.26074 eV
  Last Energy change         ...   -9.1114e-10  Tolerance :   1.0000e-08
  Last MAX-Density change    ...    2.1771e-06  Tolerance :   1.0000e-07
             **** THE GBW FILE WAS UPDATED (C-F-F-H_radical_opt.gbw) ****
             **** DENSITY C-F-F-H_radical_opt.scfp WAS UPDATED ****
             **** ENERGY FILE WAS UPDATED (C-F-F-H_radical_opt.en.tmp) ****
----------------------
UHF SPIN CONTAMINATION
----------------------

Warning: in a DFT calculation there is little theoretical justification to 
         calculate <S**2> as in Hartree-Fock theory. We will do it anyways
         but you should keep in mind that the values have only limited relevance

Expectation value of <S**2>     :     0.752577
Ideal value S*(S+1) for S=0.5   :     0.750000
Deviation                       :     0.002577

             **** THE GBW FILE WAS UPDATED (C-F-F-H_radical_opt.gbw) ****
             **** DENSITY C-F-F-H_radical_opt.scfp WAS UPDATED ****
Total SCF time: 0 days 0 hours 0 min 22 sec 

Maximum memory used throughout the entire SCF-calculation: 248.8 MB

-------------------------   --------------------
FINAL SINGLE POINT ENERGY      -238.181963863398
-------------------------   --------------------

------------------------------------------------------------------------------
                         ORCA SCF GRADIENT CALCULATION
------------------------------------------------------------------------------

Gradient of the Kohn-Sham DFT energy:
Kohn-Sham wavefunction type      ... UKS
Hartree-Fock exchange scaling    ...    0.250
Number of operators              ...    2
Number of atoms                  ...    4
Basis set dimensions             ...  158
Integral neglect threshold       ... 2.5e-11
Integral primitive cutoff        ... 2.5e-12
SHARK Integral package           ... ON

Nuc. rep. gradient       (SHARK) ... done (  0.0 sec)
HCore & Overlap gradient (SHARK) ... done (  0.0 sec)
Two-Electron gradient    (SHARK) ... done (  8.7 sec)
Exchange-correlation gradient    ... done

------------------
CARTESIAN GRADIENT
------------------

   1   C   :   -0.000744859    0.010050355    0.018453689
   2   F   :    0.013397204   -0.004691461   -0.006739014
   3   F   :   -0.012625690   -0.004697463   -0.006554377
   4   H   :   -0.000026655   -0.000661431   -0.005160298

Difference to translation invariance:
           :    0.0000000000   -0.0000000000   -0.0000000000

Difference to rotation invariance:
           :   -0.0001174665    0.0000009689   -0.0000254026

Norm of the cartesian gradient     ...    0.0306677881
RMS gradient                       ...    0.0088530279
MAX gradient                       ...    0.0184536890

-------
TIMINGS
-------

Total SCF gradient time            ...        9.881 sec

One electron gradient       ....       0.037 sec  (  0.4%)
Two electron gradient       ....       8.677 sec  ( 87.8%)
XC gradient                 ....       1.077 sec  ( 10.9%)

Maximum memory used throughout the entire SCFGRAD-calculation: 48.7 MB
------------------------------------------------------------------------------
                         ORCA GEOMETRY RELAXATION STEP
------------------------------------------------------------------------------

Reading the OPT-File                    .... done
Getting information on internals        .... done
Copying old internal coords+grads       .... done
Making the new internal coordinates     .... (new redundants).... done
Validating the new internal coordinates .... (new redundants).... done
Calculating the B-matrix                .... done
Calculating the G,G- and P matrices     .... done
Transforming gradient to internals      .... done
Projecting the internal gradient        .... done
Number of atoms                         ....   4
Number of internal coordinates          ....   7
Current Energy                          ....  -238.181963863 Eh
Current gradient norm                   ....     0.030667788 Eh/bohr
Maximum allowed component of the step   ....  0.300
Current trust radius                    ....  0.300
Updating the Hessian (BFGS)             .... done
Forming the augmented Hessian           .... done
Diagonalizing the augmented Hessian     .... done
Last element of RFO vector              ....  0.993358510
Lowest eigenvalues of augmented Hessian:
 -0.002277359  0.104342872  0.317920179  0.333834051  0.354232302
Length of the computed step             ....  0.115829568
The final length of the internal step   ....  0.115829568
Converting the step to cartesian space:
 Initial RMS(Int)=    0.0437794618
Transforming coordinates:
 Iter   0:  RMS(Cart)=    0.0258909006 RMS(Int)=    0.0439043667
 Iter   1:  RMS(Cart)=    0.0008704640 RMS(Int)=    0.0011345041
 Iter   2:  RMS(Cart)=    0.0000218289 RMS(Int)=    0.0000338807
 Iter   3:  RMS(Cart)=    0.0000013846 RMS(Int)=    0.0000017627
 Iter   4:  RMS(Cart)=    0.0000000492 RMS(Int)=    0.0000000675
done
Storing new coordinates                 .... done

                                .--------------------.
          ----------------------|Geometry convergence|-------------------------
          Item                value                   Tolerance       Converged
          ---------------------------------------------------------------------
          Energy change      -0.0074561188            0.0000050000      NO
          RMS gradient        0.0090137904            0.0001000000      NO
          MAX gradient        0.0152429905            0.0003000000      NO
          RMS step            0.0437794618            0.0020000000      NO
          MAX step            0.0746763161            0.0040000000      NO
          ........................................................
          Max(Bonds)      0.0239      Max(Angles)    2.63
          Max(Dihed)        0.00      Max(Improp)    4.28
          ---------------------------------------------------------------------

The optimization has not yet converged - more geometry cycles are needed


    ---------------------------------------------------------------------------
                         Redundant Internal Coordinates
                            (Angstroem and degrees)

        Definition                    Value    dE/dq     Step     New-Value
    ----------------------------------------------------------------------------
     1. B(F   1,C   0)                1.3404  0.015243 -0.0239    1.3165   
     2. B(F   2,C   0)                1.3390  0.014475 -0.0223    1.3167   
     3. B(H   3,C   0)                1.0925  0.001177 -0.0032    1.0894   
     4. A(F   1,C   0,H   3)          111.84 -0.004567    2.47    114.30   
     5. A(F   2,C   0,H   3)          111.86 -0.007489    2.63    114.48   
     6. A(F   1,C   0,F   2)          111.04  0.003420    0.34    111.39   
     7. I(F   1,H   3,F   2,C   0)    -49.27 -0.006069    4.28    -44.99   
    ----------------------------------------------------------------------------

         *************************************************************
         *                GEOMETRY OPTIMIZATION CYCLE   3            *
         *************************************************************
---------------------------------
CARTESIAN COORDINATES (ANGSTROEM)
---------------------------------
  C     -0.001963    0.077176    0.244178
  F      1.095320   -0.576288   -0.075413
  F     -1.076497   -0.613573   -0.075030
  H     -0.016861    1.112685   -0.093735

----------------------------
CARTESIAN COORDINATES (A.U.)
----------------------------
  NO LB      ZA    FRAG     MASS         X           Y           Z
   0 C     6.0000    0    12.011   -0.003709    0.145842    0.461429
   1 F     9.0000    0    18.998    2.069855   -1.089027   -0.142509
   2 F     9.0000    0    18.998   -2.034284   -1.159485   -0.141787
   3 H     1.0000    0     1.008   -0.031862    2.102670   -0.177133

--------------------------------
INTERNAL COORDINATES (ANGSTROEM)
--------------------------------
 C      0   0   0     0.000000000000     0.00000000     0.00000000
 F      1   0   0     1.316503906424     0.00000000     0.00000000
 F      1   2   0     1.316682057112   111.15835897     0.00000000
 H      1   2   3     1.089350597331   114.07468704   228.91523840

---------------------------
INTERNAL COORDINATES (A.U.)
---------------------------
 C      0   0   0     0.000000000000     0.00000000     0.00000000
 F      1   0   0     2.487831837379     0.00000000     0.00000000
 F      1   2   0     2.488168493390   111.15835897     0.00000000
 H      1   2   3     2.058574292780   114.07468704   228.91523840

------------------------------------------------------------------------------
                   ___                                                        
                  /   \      - P O W E R E D   B Y -                         
                 /     \                                                     
                 |  |  |   _    _      __       _____    __    __             
                 |  |  |  | |  | |    /  \     |  _  \  |  |  /  |          
                  \  \/   | |  | |   /    \    | | | |  |  | /  /          
                 / \  \   | |__| |  /  /\  \   | |_| |  |  |/  /          
                |  |  |   |  __  | /  /__\  \  |    /   |      \           
                |  |  |   | |  | | |   __   |  |    \   |  |\   \          
                \     /   | |  | | |  |  |  |  | |\  \  |  | \   \       
                 \___/    |_|  |_| |__|  |__|  |_| \__\ |__|  \__/        
                                                                              
                      - O R C A' S   B I G   F R I E N D -                    
                                      &                                       
                       - I N T E G R A L  F E E D E R -                       
                                                                              
 v1 FN, 2020, v2 2021                                                         
------------------------------------------------------------------------------


Reading SHARK input file C-F-F-H_radical_opt.SHARKINP.tmp ... ok
----------------------
SHARK INTEGRAL PACKAGE
----------------------

Number of atoms                             ...      4
Number of basis functions                   ...    158
Number of shells                            ...     64
Maximum angular momentum                    ...      3
Integral batch strategy                     ... SHARK/LIBINT Hybrid
RI-J (if used) integral strategy            ... SPLIT-RIJ (Revised 2003 algorithm where possible)
Printlevel                                  ...      1
Contraction scheme used                     ... SEGMENTED contraction
Coulomb Range Separation                    ... NOT USED
Exchange Range Separation                   ... NOT USED
Finite Nucleus Model                        ... NOT USED
Auxiliary Coulomb fitting basis             ... NOT available
Auxiliary J/K fitting basis                 ... NOT available
Auxiliary Correlation fitting basis         ... NOT available
Auxiliary 'external' fitting basis          ... NOT available
Integral threshold                          ...     2.500000e-11
Primitive cut-off                           ...     2.500000e-12
Primitive pair pre-selection threshold      ...     2.500000e-12

Calculating pre-screening integrals         ... done (  0.0 sec) Dimension = 64
Organizing shell pair data                  ... done (  0.0 sec)
Shell pair information
Total number of shell pairs                 ...      2080
Shell pairs after pre-screening             ...      1924
Total number of primitive shell pairs       ...      4081
Primitive shell pairs kept                  ...      3293
          la=0 lb=0:    462 shell pairs
          la=1 lb=0:    558 shell pairs
          la=1 lb=1:    168 shell pairs
          la=2 lb=0:    318 shell pairs
          la=2 lb=1:    178 shell pairs
          la=2 lb=2:     55 shell pairs
          la=3 lb=0:     95 shell pairs
          la=3 lb=1:     54 shell pairs
          la=3 lb=2:     30 shell pairs
          la=3 lb=3:      6 shell pairs

Calculating one electron integrals          ... done (  0.0 sec)
Calculating Nuclear repulsion               ... done (  0.0 sec) ENN=     70.762418102194 Eh

SHARK setup successfully completed in   0.2 seconds

Maximum memory used throughout the entire GTOINT-calculation: 23.0 MB

Diagonalization of the overlap matrix:
Smallest eigenvalue                        ... 2.014e-04
Time for diagonalization                   ...    0.008 sec
Threshold for overlap eigenvalues          ... 1.000e-08
Number of eigenvalues below threshold      ... 0
Time for construction of square roots      ...    0.004 sec
Total time needed                          ...    0.012 sec

-------------------
DFT GRID GENERATION
-------------------

General Integration Accuracy     IntAcc      ... 4.388
Radial Grid Type                 RadialGrid  ... OptM3 with GC (2021)
Angular Grid (max. ang.)         AngularGrid ... 4 (Lebedev-302)
Angular grid pruning method      GridPruning ... 4 (adaptive)
Weight generation scheme         WeightScheme... Becke
Basis function cutoff            BFCut       ... 1.0000e-11
Integration weight cutoff        WCut        ... 1.0000e-14
Angular grids for H and He will be reduced by one unit
Partially contracted basis set               ... off
Rotationally invariant grid construction     ... off

Total number of grid points                  ...    22853
Total number of batches                      ...      360
Average number of points per batch           ...       63
Average number of grid points per atom       ...     5713
Time for grid setup =    0.222 sec

--------------
SCF ITERATIONS
--------------
ITER       Energy         Delta-E        Max-DP      RMS-DP      [F,P]     Damp
               ***  Starting incremental Fock matrix formation  ***
  0   -238.1815225026   0.000000000000 0.00215660  0.00004075  0.0070067 0.7000
  1   -238.1819037784  -0.000381275737 0.00207376  0.00003764  0.0049638 0.7000
                               ***Turning on DIIS***
  2   -238.1821986217  -0.000294843373 0.00581242  0.00010007  0.0038067 0.0000
  3   -238.1829570481  -0.000758426328 0.00189323  0.00002983  0.0009606 0.0000
  4   -238.1829772199  -0.000020171786 0.00029196  0.00000674  0.0004194 0.0000
  5   -238.1829796224  -0.000002402499 0.00022619  0.00000324  0.0001730 0.0000
  6   -238.1829800226  -0.000000400221 0.00003443  0.00000079  0.0000556 0.0000
  7   -238.1829800415  -0.000000018959 0.00001125  0.00000037  0.0000500 0.0000
  8   -238.1829800556  -0.000000014052 0.00000457  0.00000010  0.0000094 0.0000
  9   -238.1829800560  -0.000000000421 0.00000128  0.00000003  0.0000018 0.0000
                 **** Energy Check signals convergence ****

               *****************************************************
               *                     SUCCESS                       *
               *           SCF CONVERGED AFTER  10 CYCLES          *
               *****************************************************

Total Energy       :         -238.18298006 Eh           -6481.28839 eV
  Last Energy change         ...    2.7285e-10  Tolerance :   1.0000e-08
  Last MAX-Density change    ...    1.8072e-06  Tolerance :   1.0000e-07
             **** THE GBW FILE WAS UPDATED (C-F-F-H_radical_opt.gbw) ****
             **** DENSITY C-F-F-H_radical_opt.scfp WAS UPDATED ****
             **** ENERGY FILE WAS UPDATED (C-F-F-H_radical_opt.en.tmp) ****
----------------------
UHF SPIN CONTAMINATION
----------------------

Warning: in a DFT calculation there is little theoretical justification to 
         calculate <S**2> as in Hartree-Fock theory. We will do it anyways
         but you should keep in mind that the values have only limited relevance

Expectation value of <S**2>     :     0.752645
[...]
                Q:ISTP=   13 I=  0.5 Q=  0.0000 barn     
 -----------------------------------------------------------
 Solving for nuclear perturbation:
Forming RHS of the CP-SCF equations         ... 
Calc. nucleus orbit integrals (SHARK)       ... done

------------------------------------------------------------------------------
                           ORCA CP-SCF CALCULATION
------------------------------------------------------------------------------

Input orbitals are from        ... C-F-F-H_radical_EPR.gbw
Input Perturbation             ... C-F-F-H_radical_EPR.pin.tmp
Wavefunction output            ... C-F-F-H_radical_EPR.pout.tmp
Perturbation mode              ... Imaginary perturbation
Solver                         ... POPLE
Max. number of iterations      ... 64
Convergence tolerance          ... 1.000e-03
Integral handling              ... Direct
DFT GridXC                     ... 1
Number of perturbations        ... 3
Number of operators            ... 2
Orbital ranges used for CP-SCF:
 Operator 0:  Orbitals   0... 12  to  13...157
 Operator 1:  Orbitals   0... 11  to  12...157
Variables per perturbation     ... 3637
DFT calculation                         ... on
XC functional terms                     ... off
Hybrid DFT                              ... on
   Exchange mixing (SCF)                ...  0.250
   Exchange mixing (CP-SCF)             ...  0.250
   GGA exch. scaling(SCF)               ...  0.750
   GGA exch. scaling (CP-SCF)           ...  0.750
   GGA corr. scaling (SCF)              ...  1.000
   GGA corr. scaling (CP-SCF)           ...  1.000

CP-SCF GRID
-----------

General Integration Accuracy     IntAcc      ... 3.467
Radial Grid Type                 RadialGrid  ... OptM3 with GC (2021)
Angular Grid (max. ang.)         AngularGrid ... 1 (Lebedev-50)
Angular grid pruning method      GridPruning ... 4 (adaptive)
Weight generation scheme         WeightScheme... Becke
Basis function cutoff            BFCut       ... 1.0000e-11
Integration weight cutoff        WCut        ... 1.0000e-14
Angular grids for H and He will be reduced by one unit
Partially contracted basis set               ... off
Rotationally invariant grid construction     ... off

Total number of grid points                  ...     3542
Total number of batches                      ...       58
Average number of points per batch           ...       61
Average number of grid points per atom       ...      886

Memory available               ... 925.9 MB
Memory needed per perturbation ...   4.4 MB
Perturbations treated per batch... 3
Number of batches              ... 1
     CP-SCF ITERATION   0:   1.0322e+00 (   4.2 sec   0/  3 done)
     CP-SCF ITERATION   1:   3.8807e-02 (   3.9 sec   0/  3 done)
     CP-SCF ITERATION   2:   2.7664e-03 (   3.9 sec   0/  3 done)
     CP-SCF ITERATION   3:   2.0939e-04 (   4.0 sec   3/  3 done)
                    *** THE CP-SCF HAS CONVERGED ***

Forming final perturbed densities           ... done
Transforming perturbed density to AO basis  ... done

 Raw HFC matrix (all values in MHz): 
 -----------------------------------
               325.3340              -0.0258               0.2844
                -0.0257             326.7280             -16.2614
                 0.2837             -16.2157             547.3096

 A(FC)         399.7411             399.7411             399.7411
 A(SD)         -74.3984             -74.3733             148.7717
 A(ORB+DIA)     -0.0092               0.1712              -0.0138    A(PC) =   0.0494
 A(ORB)         -0.0112               0.1698              -0.0137    A(PC) =   0.0483
 A(DIA)          0.0020               0.0015              -0.0001    A(PC) =   0.0011
             ----------           ----------           ----------
 A(Tot)        325.3335             325.5391             548.4990    A(iso)=  399.7905
 Orientation: 
  X           0.9997013           -0.0244080            0.0012795
  Y           0.0244362            0.9970232           -0.0731280
  Z           0.0005092            0.0731374            0.9973217

Notes:  (1) The A matrix conforms to the "SAI" spin Hamiltonian convention.
        (2) Tensor is right-handed.

 -----------------------------------------------------------
 Nucleus   3H : A:ISTP=    1 I=  0.5 P=533.5514 MHz/au**3
                Q:ISTP=    2 I=  1.0 Q=  0.0029 barn     
 -----------------------------------------------------------
 Solving for nuclear perturbation:
Forming RHS of the CP-SCF equations         ... 
Calc. nucleus orbit integrals (SHARK)       ... done

------------------------------------------------------------------------------
                           ORCA CP-SCF CALCULATION
------------------------------------------------------------------------------

Input orbitals are from        ... C-F-F-H_radical_EPR.gbw
Input Perturbation             ... C-F-F-H_radical_EPR.pin.tmp
Wavefunction output            ... C-F-F-H_radical_EPR.pout.tmp
Perturbation mode              ... Imaginary perturbation
Solver                         ... POPLE
Max. number of iterations      ... 64
Convergence tolerance          ... 1.000e-03
Integral handling              ... Direct
DFT GridXC                     ... 1
Number of perturbations        ... 3
Number of operators            ... 2
Orbital ranges used for CP-SCF:
 Operator 0:  Orbitals   0... 12  to  13...157
 Operator 1:  Orbitals   0... 11  to  12...157
Variables per perturbation     ... 3637
DFT calculation                         ... on
XC functional terms                     ... off
Hybrid DFT                              ... on
   Exchange mixing (SCF)                ...  0.250
   Exchange mixing (CP-SCF)             ...  0.250
   GGA exch. scaling(SCF)               ...  0.750
   GGA exch. scaling (CP-SCF)           ...  0.750
   GGA corr. scaling (SCF)              ...  1.000
   GGA corr. scaling (CP-SCF)           ...  1.000

CP-SCF GRID
-----------

General Integration Accuracy     IntAcc      ... 3.467
Radial Grid Type                 RadialGrid  ... OptM3 with GC (2021)
Angular Grid (max. ang.)         AngularGrid ... 1 (Lebedev-50)
Angular grid pruning method      GridPruning ... 4 (adaptive)
Weight generation scheme         WeightScheme... Becke
Basis function cutoff            BFCut       ... 1.0000e-11
Integration weight cutoff        WCut        ... 1.0000e-14
Angular grids for H and He will be reduced by one unit
Partially contracted basis set               ... off
Rotationally invariant grid construction     ... off

Total number of grid points                  ...     3542
Total number of batches                      ...       58
Average number of points per batch           ...       61
Average number of grid points per atom       ...      886

Memory available               ... 925.7 MB
Memory needed per perturbation ...   4.4 MB
Perturbations treated per batch... 3
Number of batches              ... 1
     CP-SCF ITERATION   0:   6.4641e-02 (   3.9 sec   0/  3 done)
     CP-SCF ITERATION   1:   2.4329e-03 (   4.0 sec   0/  3 done)
     CP-SCF ITERATION   2:   1.4849e-04 (   4.1 sec   3/  3 done)
                    *** THE CP-SCF HAS CONVERGED ***

Forming final perturbed densities           ... done
Transforming perturbed density to AO basis  ... done

 Raw HFC matrix (all values in MHz): 
 -----------------------------------
                26.0647              -1.0861               0.1622
                -1.0861              93.4431              -9.9144
                 0.1616              -9.8793              54.5797

 A(FC)          57.9919              57.9919              57.9919
 A(SD)         -32.0019              -5.7857              37.7877
 A(ORB+DIA)      0.0572              -0.0013               0.0558    A(PC) =   0.0372
 A(ORB)          0.0567               0.0011               0.0504    A(PC) =   0.0361
 A(DIA)          0.0004              -0.0024               0.0055    A(PC) =   0.0012
             ----------           ----------           ----------
 A(Tot)         26.0472              52.2049              95.8354    A(iso)=   58.0292
 Orientation: 
  X           0.9998704           -0.0036747            0.0156759
  Y           0.0161006            0.2336217           -0.9721943
  Z          -0.0000897            0.9723206            0.2336506

Notes:  (1) The A matrix conforms to the "SAI" spin Hamiltonian convention.
        (2) Tensor is right-handed.

 -----------------------------------------------------------
 Nucleus   1F : A:ISTP=   19 I=  0.5 P=502.2248 MHz/au**3
                Q:ISTP=   19 I=  0.5 Q=  0.0000 barn     
 -----------------------------------------------------------
 Solving for nuclear perturbation:
Forming RHS of the CP-SCF equations         ... 
Calc. nucleus orbit integrals (SHARK)       ... done

------------------------------------------------------------------------------
                           ORCA CP-SCF CALCULATION
------------------------------------------------------------------------------

Input orbitals are from        ... C-F-F-H_radical_EPR.gbw
Input Perturbation             ... C-F-F-H_radical_EPR.pin.tmp
Wavefunction output            ... C-F-F-H_radical_EPR.pout.tmp
Perturbation mode              ... Imaginary perturbation
Solver                         ... POPLE
Max. number of iterations      ... 64
Convergence tolerance          ... 1.000e-03
Integral handling              ... Direct
DFT GridXC                     ... 1
Number of perturbations        ... 3
Number of operators            ... 2
Orbital ranges used for CP-SCF:
 Operator 0:  Orbitals   0... 12  to  13...157
 Operator 1:  Orbitals   0... 11  to  12...157
Variables per perturbation     ... 3637
DFT calculation                         ... on
XC functional terms                     ... off
Hybrid DFT                              ... on
   Exchange mixing (SCF)                ...  0.250
   Exchange mixing (CP-SCF)             ...  0.250
   GGA exch. scaling(SCF)               ...  0.750
   GGA exch. scaling (CP-SCF)           ...  0.750
   GGA corr. scaling (SCF)              ...  1.000
   GGA corr. scaling (CP-SCF)           ...  1.000

CP-SCF GRID
-----------

General Integration Accuracy     IntAcc      ... 3.467
Radial Grid Type                 RadialGrid  ... OptM3 with GC (2021)
Angular Grid (max. ang.)         AngularGrid ... 1 (Lebedev-50)
Angular grid pruning method      GridPruning ... 4 (adaptive)
Weight generation scheme         WeightScheme... Becke
Basis function cutoff            BFCut       ... 1.0000e-11
Integration weight cutoff        WCut        ... 1.0000e-14
Angular grids for H and He will be reduced by one unit
Partially contracted basis set               ... off
Rotationally invariant grid construction     ... off

Total number of grid points                  ...     3542
Total number of batches                      ...       58
Average number of points per batch           ...       61
Average number of grid points per atom       ...      886

Memory available               ... 925.7 MB
Memory needed per perturbation ...   4.4 MB
Perturbations treated per batch... 3
Number of batches              ... 1
     CP-SCF ITERATION   0:   2.7839e+00 (   4.0 sec   0/  3 done)
     CP-SCF ITERATION   1:   1.2015e-01 (   3.9 sec   0/  3 done)
     CP-SCF ITERATION   2:   8.4254e-03 (   3.9 sec   0/  3 done)
     CP-SCF ITERATION   3:   7.0744e-04 (   3.9 sec   3/  3 done)
                    *** THE CP-SCF HAS CONVERGED ***

Forming final perturbed densities           ... done
Transforming perturbed density to AO basis  ... done

 Raw HFC matrix (all values in MHz): 
 -----------------------------------
                16.2164              14.1574             -67.3068
                13.5534              25.2482             -29.9308
               -67.4510             -29.9863             639.8821

 A(FC)         226.2518             226.2518             226.2518
 A(SD)        -224.6036            -198.0174             422.6210
 A(ORB+DIA)      1.8338               0.9837              -0.2263    A(PC) =   0.8637
 A(ORB)          1.8303               0.9825              -0.2258    A(PC) =   0.8623
 A(DIA)          0.0035               0.0012              -0.0005    A(PC) =   0.0014
             ----------           ----------           ----------
 A(Tot)          3.4820              29.2181             648.6465    A(iso)=  227.1155
 Orientation: 
  X           0.8767234            0.4689868           -0.1068054
  Y          -0.4758245            0.8781175           -0.0500070
  Z           0.0703351            0.0946630            0.9930216

Notes:  (1) The A matrix conforms to the "SAI" spin Hamiltonian convention.
        (2) Tensor is right-handed.

 -----------------------------------------------------------
 Nucleus   2F : A:ISTP=   19 I=  0.5 P=502.2248 MHz/au**3
                Q:ISTP=   19 I=  0.5 Q=  0.0000 barn     
 -----------------------------------------------------------
 Solving for nuclear perturbation:
Forming RHS of the CP-SCF equations         ... 
Calc. nucleus orbit integrals (SHARK)       ... done

------------------------------------------------------------------------------
                           ORCA CP-SCF CALCULATION
------------------------------------------------------------------------------

Input orbitals are from        ... C-F-F-H_radical_EPR.gbw
Input Perturbation             ... C-F-F-H_radical_EPR.pin.tmp
Wavefunction output            ... C-F-F-H_radical_EPR.pout.tmp
Perturbation mode              ... Imaginary perturbation
Solver                         ... POPLE
Max. number of iterations      ... 64
Convergence tolerance          ... 1.000e-03
Integral handling              ... Direct
DFT GridXC                     ... 1
Number of perturbations        ... 3
Number of operators            ... 2
Orbital ranges used for CP-SCF:
 Operator 0:  Orbitals   0... 12  to  13...157
 Operator 1:  Orbitals   0... 11  to  12...157
Variables per perturbation     ... 3637
DFT calculation                         ... on
XC functional terms                     ... off
Hybrid DFT                              ... on
   Exchange mixing (SCF)                ...  0.250
   Exchange mixing (CP-SCF)             ...  0.250
   GGA exch. scaling(SCF)               ...  0.750
   GGA exch. scaling (CP-SCF)           ...  0.750
   GGA corr. scaling (SCF)              ...  1.000
   GGA corr. scaling (CP-SCF)           ...  1.000

CP-SCF GRID
-----------

General Integration Accuracy     IntAcc      ... 3.467
Radial Grid Type                 RadialGrid  ... OptM3 with GC (2021)
Angular Grid (max. ang.)         AngularGrid ... 1 (Lebedev-50)
Angular grid pruning method      GridPruning ... 4 (adaptive)
Weight generation scheme         WeightScheme... Becke
Basis function cutoff            BFCut       ... 1.0000e-11
Integration weight cutoff        WCut        ... 1.0000e-14
Angular grids for H and He will be reduced by one unit
Partially contracted basis set               ... off
Rotationally invariant grid construction     ... off

Total number of grid points                  ...     3542
Total number of batches                      ...       58
Average number of points per batch           ...       61
Average number of grid points per atom       ...      886

Memory available               ... 925.7 MB
Memory needed per perturbation ...   4.4 MB
Perturbations treated per batch... 3
Number of batches              ... 1
     CP-SCF ITERATION   0:   2.7832e+00 (   4.0 sec   0/  3 done)
     CP-SCF ITERATION   1:   1.2030e-01 (   3.9 sec   0/  3 done)
     CP-SCF ITERATION   2:   8.4724e-03 (   3.9 sec   0/  3 done)
     CP-SCF ITERATION   3:   7.0765e-04 (   3.9 sec   3/  3 done)
                    *** THE CP-SCF HAS CONVERGED ***

Forming final perturbed densities           ... done
Transforming perturbed density to AO basis  ... done

 Raw HFC matrix (all values in MHz): 
 -----------------------------------
                17.2184             -14.4059              68.3259
               -13.8021              24.3692             -27.6421
                68.4717             -27.6924             640.1050

 A(FC)         226.3677             226.3677             226.3677
 A(SD)        -224.6435            -198.0920             422.7355
 A(ORB+DIA)      1.8323               0.9833              -0.2261    A(PC) =   0.8632
 A(ORB)          1.8288               0.9821              -0.2256    A(PC) =   0.8618
 A(DIA)          0.0035               0.0012              -0.0005    A(PC) =   0.0014
             ----------           ----------           ----------
 A(Tot)          3.5566              29.2590             648.8770    A(iso)=  227.2309
 Orientation: 
  X           0.8609584           -0.4969748            0.1084741
  Y           0.5037618            0.8625978           -0.0463582
  Z          -0.0705306            0.0945576            0.9930178

Notes:  (1) The A matrix conforms to the "SAI" spin Hamiltonian convention.
        (2) Tensor is right-handed.


--------------------------------------------------------------------------------
----------------------------------------------------------------------------
                           ORCA EULER ANGLE PROGRAM
----------------------------------------------------------------------------

Only g-tensor available        -->  using g-tensor as reference tensor

Reference tensor               ...  g

g-tensor ordering              ...  |g_min> --> |gx>
                                    |g_mid> --> |gy>
                                    |g_max> --> |gz>

A- and EFG-tensor ordering     ...  the axes |Ax>, |Qx>, |Ay>, etc. are assigned
                                    such that the Euler rotation is minimal. You
                                    can find the respective eigenvalues as Ax,
                                    EFGx, Ay, etc. in the tables below.
                                    The relation of |Ax>, |Ay>,  etc. to Amin, Amid, etc.
                                    (as printed in the ORCA EPR/NMR CALCULATION Output)
                                    is obtained in the detailed printout.

Euler rotation around          ...  z - y - z
   First rotation              -->  by alpha around z
   Second rotation             -->  by beta around y'
   Third rotation              -->  by gamma around z''
   Positive / Negative angle   -->  clockwise / counterclockwise rotation

Plot EFG-tensors                    (-)
Plot HFC-tensors                    (-)
Detailed Printout                   (-)

-------------------------------------------------------------------------
          Euler rotation of hyperfine tensor to g-tensor
-------------------------------------------------------------------------

-------------------------------------------------------------------
 Atom  |   Alpha    Beta    Gamma   |   Ax       Ay       Az 
       |          [degrees]         |           [MHz]         
-------------------------------------------------------------------
  0C       90.9      0.4    -96.7     548.50   325.54   325.33
  3H      -23.5      0.0      0.0      52.20    95.84    26.05
  1F      -77.5     29.7     71.9     648.65    29.22     3.48
  2F      102.6     29.6   -108.2     648.88    29.26     3.56
-------------------------------------------------------------------


Maximum memory used throughout the entire EPRNMR-calculation: 111.8 MB

Timings for individual modules:

Sum of individual times         ...      142.081 sec (=   2.368 min)
GTO integral calculation        ...        0.204 sec (=   0.003 min)   0.1 %
Spin-Orbit-Coupling Matrices    ...       25.135 sec (=   0.419 min)  17.7 %
SCF iterations                  ...        4.385 sec (=   0.073 min)   3.1 %
EPR/NMR calculation             ...      112.355 sec (=   1.873 min)  79.1 %



                             ****ORCA TERMINATED NORMALLY****
TOTAL RUN TIME: 0 days 0 hours 5 minutes 18 seconds 743 msec

slurmID:    30883861
totalRuntime[s]:    318.836456758
