Stopping NBO...-------
TIMINGS
-------

Total SCF time: 0 days 0 hours 0 min 6 sec 

Total time                  ....       6.791 sec
Sum of individual times     ....       6.484 sec  ( 95.5%)

Fock matrix formation       ....       6.115 sec  ( 90.0%)
  XC integration            ....       0.882 sec  ( 14.4% of F)
    Basis function eval.    ....       0.178 sec  ( 20.2% of XC)
    Density eval.           ....       0.235 sec  ( 26.7% of XC)
    XC-Functional eval.     ....       0.067 sec  (  7.6% of XC)
    XC-Potential eval.      ....       0.363 sec  ( 41.2% of XC)
Diagonalization             ....       0.035 sec  (  0.5%)
Density matrix formation    ....       0.002 sec  (  0.0%)
Population analysis         ....       0.048 sec  (  0.7%)
Initial guess               ....       0.023 sec  (  0.3%)
Orbital Transformation      ....       0.000 sec  (  0.0%)
Orbital Orthonormalization  ....       0.015 sec  (  0.2%)
DIIS solution               ....       0.006 sec  (  0.1%)
Grid generation             ....       0.256 sec  (  3.8%)

Maximum memory used throughout the entire SCF-calculation: 256.4 MB

-------------------------   --------------------
FINAL SINGLE POINT ENERGY      -598.469346437952
-------------------------   --------------------

   --->>> g-tensor requested, so NeedSOC=true

                            ***************************************
                            *     ORCA property calculations      *
                            ***************************************

                                    ---------------------
                                    Active property flags
                                    ---------------------
   (+) Dipole Moment
   (+) g-tensor
   (+) Nuclear properties (Hyperfine,Quadrupole)
   (+) Spin-Orbit Integrals are needed


------------------------------------------------------------------------------
                       ORCA ELECTRIC PROPERTIES CALCULATION
------------------------------------------------------------------------------

Dipole Moment Calculation                       ... on
Quadrupole Moment Calculation                   ... off
Polarizability Calculation                      ... off
GBWName                                         ... C-Cl-F-H_radical_EPR.gbw
Electron density                                ... C-Cl-F-H_radical_EPR.scfp
The origin for moment calculation is the CENTER OF MASS  = ( 0.971514, -0.661269 -0.009777)

-------------
DIPOLE MOMENT
-------------
                                X             Y             Z
Electronic contribution:      0.89534      -1.25548      -0.10173
Nuclear contribution   :     -0.95959       1.69697       0.01670
                        -----------------------------------------
Total Dipole Moment    :     -0.06425       0.44149      -0.08503
                        -----------------------------------------
Magnitude (a.u.)       :      0.45417
Magnitude (Debye)      :      1.15440



--------------------
Rotational spectrum 
--------------------
 
Rotational constants in cm-1:     1.971661     0.197065     0.180235 
Rotational constants in MHz : 59108.899128  5907.869235  5403.296206 

 Dipole components along the rotational axes: 
x,y,z [a.u.] :     0.025246     0.416653    -0.178974 
x,y,z [Debye]:     0.064171     1.059048    -0.454915 

 
------------------------------------------------------------------------------
                         ORCA SPIN-ORBIT COUPLING CALCULATION
------------------------------------------------------------------------------

GBW file                                    ... C-Cl-F-H_radical_EPR.gbw
Input density                               ... C-Cl-F-H_radical_EPR.scfp
Output integrals                            ... C-Cl-F-H_radical_EPR
Operator type                               ... Mean-field/Effective potential
   One-Electron Terms                       ... 1
   Coulomb Contribution                     ... 4
   Exchange Contribution                    ... 3
   Correlation Contribution                 ... 0
   Maximum number of centers                ... 4
SHARK 1-electron  MaxCenter=4               ... done (  0.0 sec)
Evaluating Coulomb term analytically        ... 
SHARK 2-electron DoJ,X=1,1 MaxCenter=4      ... done ( 44.3 sec)

Maximum memory used throughout the entire SOC-calculation: 54.3 MB
Total time for SOC: 44.759
------------------------------------------------------------------------------
                                ORCA EPR/NMR CALCULATION
------------------------------------------------------------------------------

GBWName                      ... C-Cl-F-H_radical_EPR.gbw
Electron density             ... C-Cl-F-H_radical_EPR.scfp
Spin density                 ... C-Cl-F-H_radical_EPR.scfr
Spin-orbit integrals         ... C-Cl-F-H_radical_EPR
Treatment of gauge           ... GIAO (approximations 1/2el = 0,0)
Details of the CP(SCF) procedure:
       Solver   = POPLE   
       MaxIter  =    64   
       Tolerance=    1.000e-03
       Op-0     =   0- 16 =>  17-179
       Op-1     =   0- 15 =>  16-179
Multiplicity                 ... 2
g-tensor                     ... 1
NMR chemical shifts          ... 0
NMR spin-spin couplings      ... 0
NMR spectrum                 ... 0
Number of nuclei for epr/nmr ... 4
   Nucleus:   0C 
       Hyperfine : Isotope=   13 I=   0.500 P= 134.190
       Quadrupole: Isotope=   13 I=   0.500 Q=   0.000
       Spin-Orbit: Zeff=   3.600
       Nuclear Spin-Spin: Gn=   0.000
       EPRNMR Input: 
       rho(0)=N f(grad)=N a(iso)=Y a(dip)=Y a(orb)=Y sigma(nmr)=N spin-spin(nmr)=all-N,DSO-N,PSO-N,FC-N,SD-N
   Nucleus:   3H 
       Hyperfine : Isotope=    1 I=   0.500 P= 533.551
       Quadrupole: Isotope=    2 I=   1.000 Q=   0.003
       Spin-Orbit: Zeff=   1.000
       Nuclear Spin-Spin: Gn=   0.000
       EPRNMR Input: 
       rho(0)=N f(grad)=N a(iso)=Y a(dip)=Y a(orb)=Y sigma(nmr)=N spin-spin(nmr)=all-N,DSO-N,PSO-N,FC-N,SD-N
   Nucleus:   2F 
       Hyperfine : Isotope=   19 I=   0.500 P= 502.225
       Quadrupole: Isotope=   19 I=   0.500 Q=   0.000
       Spin-Orbit: Zeff=   6.750
       Nuclear Spin-Spin: Gn=   0.000
       EPRNMR Input: 
       rho(0)=N f(grad)=N a(iso)=Y a(dip)=Y a(orb)=Y sigma(nmr)=N spin-spin(nmr)=all-N,DSO-N,PSO-N,FC-N,SD-N
   Nucleus:   1Cl
       Hyperfine : Isotope=   35 I=   1.500 P=  52.338
       Quadrupole: Isotope=   35 I=   1.500 Q=  -0.082
       Spin-Orbit: Zeff=  14.238
       Nuclear Spin-Spin: Gn=   0.000
       EPRNMR Input: 
       rho(0)=N f(grad)=N a(iso)=Y a(dip)=Y a(orb)=Y sigma(nmr)=N spin-spin(nmr)=all-N,DSO-N,PSO-N,FC-N,SD-N
Forming RHS of the CP-SCF equations         ... 
Calculating right hand sides for GIAO treatment        ... 
  Entering RightHandSide GIAO. ScalHFX=    0.2500 NeedHFX=1
     -> 1-electron GIAO integrals will be done analytically
     -> SCF done analytically. Same chosen for GIAO calculation.
     Making grid for GIAO integrations   ...

GRID GIAO
---------

General Integration Accuracy     IntAcc      ... 4.388
Radial Grid Type                 RadialGrid  ... OptM3 with GC (2021)
Angular Grid (max. ang.)         AngularGrid ... 4 (Lebedev-302)
Angular grid pruning method      GridPruning ... 4 (adaptive)
Weight generation scheme         WeightScheme... Becke
Basis function cutoff            BFCut       ... 1.0000e-11
Integration weight cutoff        WCut        ... 1.0000e-14
Angular grids for H and He will be reduced by one unit
Partially contracted basis set               ... off
Rotationally invariant grid construction     ... off

Total number of grid points                  ...    24074
Total number of batches                      ...      379
Average number of points per batch           ...       63
Average number of grid points per atom       ...     6018

  One-electron GIAO integrals (SHARK)     ... done
  Calculating G(B)[P]                     ... (fully analytic-SHARK-ok) => dG/dB done
  DFT XC-terms                            ... done
  Extracting occupied and virtual blocks  ... 
  Operator  0  NO=  17 NV= 163 
  Operator  1  NO=  16 NV= 164 
  Transforming and RHS contribution       ... done
  Adding eps_i * S(B)_ai terms            ... done
  Projecting overlap derivatives          ... done
  Building G[dS/dB_ij] (SHARK)            ... done
  Transforming to MO basis                ... done
  Summing G[dS/dB_ij] into RHS contribs.  ... done

  GIAO profiling information: 
    Total GIAO time               ...      46.0 sec
       GIAO 1-electron integrals  ...       0.0 sec (  0.0%)
       GIAO G(dS/dB) terms        ...       7.4 sec ( 16.2%)
       GIAO analytic 2-el. ints   ...      33.7 sec ( 73.1%)
       GIAO XC-terms              ...       4.7 sec ( 10.1%)
       Right hand side assembly   ...       0.0 sec (  0.0%)

  GIAO right hand side done


------------------------------------------------------------------------------
                           ORCA CP-SCF CALCULATION
------------------------------------------------------------------------------

Input orbitals are from        ... C-Cl-F-H_radical_EPR.gbw
Input Perturbation             ... C-Cl-F-H_radical_EPR.pin.tmp
Wavefunction output            ... C-Cl-F-H_radical_EPR.pout.tmp
Perturbation mode              ... Imaginary perturbation
Solver                         ... POPLE
Max. number of iterations      ... 64
Convergence tolerance          ... 1.000e-03
Integral handling              ... Direct
DFT GridXC                     ... 1
Number of perturbations        ... 3
Number of operators            ... 2
Orbital ranges used for CP-SCF:
 Operator 0:  Orbitals   0... 16  to  17...179
 Operator 1:  Orbitals   0... 15  to  16...179
Variables per perturbation     ... 5395
DFT calculation                         ... on
XC functional terms                     ... off
Hybrid DFT                              ... on
   Exchange mixing (SCF)                ...  0.250
   Exchange mixing (CP-SCF)             ...  0.250
   GGA exch. scaling(SCF)               ...  0.750
   GGA exch. scaling (CP-SCF)           ...  0.750
   GGA corr. scaling (SCF)              ...  1.000
   GGA corr. scaling (CP-SCF)           ...  1.000

CP-SCF GRID
-----------

General Integration Accuracy     IntAcc      ... 3.467
Radial Grid Type                 RadialGrid  ... OptM3 with GC (2021)
Angular Grid (max. ang.)         AngularGrid ... 1 (Lebedev-50)
Angular grid pruning method      GridPruning ... 4 (adaptive)
Weight generation scheme         WeightScheme... Becke
Basis function cutoff            BFCut       ... 1.0000e-11
Integration weight cutoff        WCut        ... 1.0000e-14
Angular grids for H and He will be reduced by one unit
Partially contracted basis set               ... off
Rotationally invariant grid construction     ... off

Total number of grid points                  ...     3782
Total number of batches                      ...       61
Average number of points per batch           ...       62
Average number of grid points per atom       ...      946

Memory available               ... 960.9 MB
Memory needed per perturbation ...   6.3 MB
Perturbations treated per batch... 3
Number of batches              ... 1
     CP-SCF ITERATION   0:   3.3704e-01 (   7.9 sec   0/  3 done)
     CP-SCF ITERATION   1:   8.8299e-03 (   8.1 sec   0/  3 done)
     CP-SCF ITERATION   2:   7.0706e-04 (   8.0 sec   3/  3 done)
                    *** THE CP-SCF HAS CONVERGED ***

Forming final perturbed densities           ... done
Transforming perturbed density to AO basis  ... done

Magnetic field perturbation calculated in 70.213 sec
GIAO: Diamagnetic terms      (analytic)     (SHARK) ... done
GIAO: 1el-Paramagnetic terms (analytic)     (SHARK) ... done

-------------------
ELECTRONIC G-MATRIX
-------------------

 The g-matrix: 
              2.0067452    0.0014801    0.0007246
              0.0013955    2.0081444    0.0005889
              0.0000980    0.0007476    2.0015312

 gel          2.0023193    2.0023193    2.0023193
 gRMC        -0.0002166   -0.0002166   -0.0002166
 gDSO(tot)    0.0000497    0.0001248    0.0001233
 gPSO(tot)   -0.0007023    0.0036184    0.0068989
             ----------   ----------   ----------
 g(tot)       2.0014501    2.0058459    2.0091249 iso=  2.0054736
 Delta-g     -0.0008692    0.0035266    0.0068056 iso=  0.0031543
 Orientation: 
  X          -0.0533327   -0.8479533   -0.5273811
  Y          -0.0878420    0.5300692   -0.8433922
  Z           0.9947057    0.0013458   -0.1027560

Notes:  (1) The g-matrix conforms to the "BgS" spin Hamiltonian convention. 
        (2) The principal values are square roots of the eigenvalues of g*gT.
        (3) Orientations are eigenvectors of g*gT written as column vectors.
        (4) Individual contributions are projections of the full matrices onto the eigenvectors of g*gT.
        (5) Tensor is right-handed.


-----------------------------------------
ELECTRIC AND MAGNETIC HYPERFINE STRUCTURE
-----------------------------------------

 -----------------------------------------------------------
 Nucleus   0C : A:ISTP=   13 I=  0.5 P=134.1903 MHz/au**3
                Q:ISTP=   13 I=  0.5 Q=  0.0000 barn     
 -----------------------------------------------------------
 Solving for nuclear perturbation:
Forming RHS of the CP-SCF equations         ... 
Calc. nucleus orbit integrals (SHARK)       ... done

------------------------------------------------------------------------------
                           ORCA CP-SCF CALCULATION
------------------------------------------------------------------------------

Input orbitals are from        ... C-Cl-F-H_radical_EPR.gbw
Input Perturbation             ... C-Cl-F-H_radical_EPR.pin.tmp
Wavefunction output            ... C-Cl-F-H_radical_EPR.pout.tmp
Perturbation mode              ... Imaginary perturbation
Solver                         ... POPLE
Max. number of iterations      ... 64
Convergence tolerance          ... 1.000e-03
Integral handling              ... Direct
DFT GridXC                     ... 1
Number of perturbations        ... 3
Number of operators            ... 2
Orbital ranges used for CP-SCF:
 Operator 0:  Orbitals   0... 16  to  17...179
 Operator 1:  Orbitals   0... 15  to  16...179
Variables per perturbation     ... 5395
DFT calculation                         ... on
XC functional terms                     ... off
Hybrid DFT                              ... on
   Exchange mixing (SCF)                ...  0.250
   Exchange mixing (CP-SCF)             ...  0.250
   GGA exch. scaling(SCF)               ...  0.750
   GGA exch. scaling (CP-SCF)           ...  0.750
   GGA corr. scaling (SCF)              ...  1.000
   GGA corr. scaling (CP-SCF)           ...  1.000

CP-SCF GRID
-----------

General Integration Accuracy     IntAcc      ... 3.467
Radial Grid Type                 RadialGrid  ... OptM3 with GC (2021)
Angular Grid (max. ang.)         AngularGrid ... 1 (Lebedev-50)
Angular grid pruning method      GridPruning ... 4 (adaptive)
Weight generation scheme         WeightScheme... Becke
Basis function cutoff            BFCut       ... 1.0000e-11
Integration weight cutoff        WCut        ... 1.0000e-14
Angular grids for H and He will be reduced by one unit
Partially contracted basis set               ... off
Rotationally invariant grid construction     ... off

Total number of grid points                  ...     3782
Total number of batches                      ...       61
Average number of points per batch           ...       62
Average number of grid points per atom       ...      946

Memory available               ... 888.6 MB
Memory needed per perturbation ...   6.3 MB
Perturbations treated per batch... 3
Number of batches              ... 1
     CP-SCF ITERATION   0:   1.3236e+00 (   7.9 sec   0/  3 done)
     CP-SCF ITERATION   1:   6.5207e-02 (   7.8 sec   0/  3 done)
     CP-SCF ITERATION   2:   6.1494e-03 (   7.7 sec   0/  3 done)
     CP-SCF ITERATION   3:   5.7628e-04 (   7.9 sec   3/  3 done)
                    *** THE CP-SCF HAS CONVERGED ***

Forming final perturbed densities           ... done
Transforming perturbed density to AO basis  ... done

 Raw HFC matrix (all values in MHz): 
 -----------------------------------
               233.5644              -0.7082              -5.7887
                -0.6795             233.3677              -6.6043
                -5.7957              -6.4922             453.9393

 A(FC)         306.5768             306.5768             306.5768
 A(SD)         -75.0639             -72.6607             147.7245
 A(ORB+DIA)      0.9074               0.2507              -0.0171    A(PC) =   0.3803
 A(ORB)          0.9056               0.2492              -0.0170    A(PC) =   0.3793
 A(DIA)          0.0018               0.0015              -0.0001    A(PC) =   0.0010
             ----------           ----------           ----------
 A(Tot)        232.4203             234.1668             454.2843    A(iso)=  306.9571
 Orientation: 
  X           0.6563662            0.7539905            0.0261101
  Y           0.7534018           -0.6568853            0.0297883
  Z           0.0396114            0.0001194           -0.9992152

Notes:  (1) The A matrix conforms to the "SAI" spin Hamiltonian convention.
        (2) Tensor is right-handed.

 -----------------------------------------------------------
 Nucleus   3H : A:ISTP=    1 I=  0.5 P=533.5514 MHz/au**3
                Q:ISTP=    2 I=  1.0 Q=  0.0029 barn     
 -----------------------------------------------------------
 Solving for nuclear perturbation:
Forming RHS of the CP-SCF equations         ... 
Calc. nucleus orbit integrals (SHARK)       ... done

------------------------------------------------------------------------------
                           ORCA CP-SCF CALCULATION
------------------------------------------------------------------------------

Input orbitals are from        ... C-Cl-F-H_radical_EPR.gbw
Input Perturbation             ... C-Cl-F-H_radical_EPR.pin.tmp
Wavefunction output            ... C-Cl-F-H_radical_EPR.pout.tmp
Perturbation mode              ... Imaginary perturbation
Solver                         ... POPLE
Max. number of iterations      ... 64
Convergence tolerance          ... 1.000e-03
Integral handling              ... Direct
DFT GridXC                     ... 1
Number of perturbations        ... 3
Number of operators            ... 2
Orbital ranges used for CP-SCF:
 Operator 0:  Orbitals   0... 16  to  17...179
 Operator 1:  Orbitals   0... 15  to  16...179
Variables per perturbation     ... 5395
DFT calculation                         ... on
XC functional terms                     ... off
Hybrid DFT                              ... on
   Exchange mixing (SCF)                ...  0.250
   Exchange mixing (CP-SCF)             ...  0.250
   GGA exch. scaling(SCF)               ...  0.750
   GGA exch. scaling (CP-SCF)           ...  0.750
   GGA corr. scaling (SCF)              ...  1.000
   GGA corr. scaling (CP-SCF)           ...  1.000

CP-SCF GRID
-----------

General Integration Accuracy     IntAcc      ... 3.467
Radial Grid Type                 RadialGrid  ... OptM3 with GC (2021)
Angular Grid (max. ang.)         AngularGrid ... 1 (Lebedev-50)
Angular grid pruning method      GridPruning ... 4 (adaptive)
Weight generation scheme         WeightScheme... Becke
Basis function cutoff            BFCut       ... 1.0000e-11
Integration weight cutoff        WCut        ... 1.0000e-14
Angular grids for H and He will be reduced by one unit
Partially contracted basis set               ... off
Rotationally invariant grid construction     ... off

Total number of grid points                  ...     3782
Total number of batches                      ...       61
Average number of points per batch           ...       62
Average number of grid points per atom       ...      946

Memory available               ... 888.4 MB
Memory needed per perturbation ...   6.3 MB
Perturbations treated per batch... 3
Number of batches              ... 1
     CP-SCF ITERATION   0:   7.8357e-02 (   7.6 sec   0/  3 done)
     CP-SCF ITERATION   1:   3.8361e-03 (   7.9 sec   0/  3 done)
     CP-SCF ITERATION   2:   3.7455e-04 (   7.8 sec   3/  3 done)
                    *** THE CP-SCF HAS CONVERGED ***

Forming final perturbed densities           ... done
Transforming perturbed density to AO basis  ... done

 Raw HFC matrix (all values in MHz): 
 -----------------------------------
               -30.4680             -23.2153               1.3101
               -23.3382              19.6965              -9.6784
                 1.3107              -9.5756              -6.6340

 A(FC)          -5.8869              -5.8869              -5.8869
 A(SD)          -2.9411              36.9089             -33.9679
 A(ORB+DIA)     -0.0007               0.1714               0.0845    A(PC) =   0.0850
 A(ORB)          0.0019               0.1661               0.0842    A(PC) =   0.0841
 A(DIA)         -0.0027               0.0054               0.0002    A(PC) =   0.0010
             ----------           ----------           ----------
 A(Tot)         -8.8287              31.1935             -39.7703    A(iso)=   -5.8018
 Orientation: 
  X          -0.1562179           -0.3461654           -0.9250759
  Y           0.1999778            0.9060932           -0.3728324
  Z           0.9672667           -0.2432378           -0.0723225

Notes:  (1) The A matrix conforms to the "SAI" spin Hamiltonian convention.
        (2) Tensor is right-handed.

 -----------------------------------------------------------
 Nucleus   2F : A:ISTP=   19 I=  0.5 P=502.2248 MHz/au**3
                Q:ISTP=   19 I=  0.5 Q=  0.0000 barn     
 -----------------------------------------------------------
 Solving for nuclear perturbation:
Forming RHS of the CP-SCF equations         ... 
Calc. nucleus orbit integrals (SHARK)       ... done

------------------------------------------------------------------------------
                           ORCA CP-SCF CALCULATION
------------------------------------------------------------------------------

Input orbitals are from        ... C-Cl-F-H_radical_EPR.gbw
Input Perturbation             ... C-Cl-F-H_radical_EPR.pin.tmp
Wavefunction output            ... C-Cl-F-H_radical_EPR.pout.tmp
Perturbation mode              ... Imaginary perturbation
Solver                         ... POPLE
Max. number of iterations      ... 64
Convergence tolerance          ... 1.000e-03
Integral handling              ... Direct
DFT GridXC                     ... 1
Number of perturbations        ... 3
Number of operators            ... 2
Orbital ranges used for CP-SCF:
 Operator 0:  Orbitals   0... 16  to  17...179
 Operator 1:  Orbitals   0... 15  to  16...179
Variables per perturbation     ... 5395
DFT calculation                         ... on
XC functional terms                     ... off
Hybrid DFT                              ... on
   Exchange mixing (SCF)                ...  0.250
   Exchange mixing (CP-SCF)             ...  0.250
   GGA exch. scaling(SCF)               ...  0.750
   GGA exch. scaling (CP-SCF)           ...  0.750
   GGA corr. scaling (SCF)              ...  1.000
   GGA corr. scaling (CP-SCF)           ...  1.000

CP-SCF GRID
-----------

General Integration Accuracy     IntAcc      ... 3.467
Radial Grid Type                 RadialGrid  ... OptM3 with GC (2021)
Angular Grid (max. ang.)         AngularGrid ... 1 (Lebedev-50)
Angular grid pruning method      GridPruning ... 4 (adaptive)
Weight generation scheme         WeightScheme... Becke
Basis function cutoff            BFCut       ... 1.0000e-11
Integration weight cutoff        WCut        ... 1.0000e-14
Angular grids for H and He will be reduced by one unit
Partially contracted basis set               ... off
Rotationally invariant grid construction     ... off

Total number of grid points                  ...     3782
Total number of batches                      ...       61
Average number of points per batch           ...       62
Average number of grid points per atom       ...      946

Memory available               ... 888.4 MB
Memory needed per perturbation ...   6.3 MB
Perturbations treated per batch... 3
Number of batches              ... 1
     CP-SCF ITERATION   0:   2.9717e+00 (   7.9 sec   0/  3 done)
     CP-SCF ITERATION   1:   1.4654e-01 (   7.8 sec   0/  3 done)
     CP-SCF ITERATION   2:   1.3821e-02 (   7.6 sec   0/  3 done)
     CP-SCF ITERATION   3:   1.5127e-03 (   7.9 sec   2/  3 done)
     CP-SCF ITERATION   4:   1.6029e-04 (   4.9 sec   3/  3 done)
                    *** THE CP-SCF HAS CONVERGED ***

Forming final perturbed densities           ... done
Transforming perturbed density to AO basis  ... done

 Raw HFC matrix (all values in MHz): 
 -----------------------------------
               -17.3875             -17.9444              11.7428
               -16.2530             -18.1918              11.7017
                12.1056              11.4714             616.3658

 A(FC)         191.3099             191.3099             191.3099
 A(SD)        -195.2155            -230.4867             425.7022
 A(ORB+DIA)      3.2188               3.8602              -0.2222    A(PC) =   2.2856
 A(ORB)          3.2178               3.8567              -0.2216    A(PC) =   2.2843
 A(DIA)          0.0011               0.0035              -0.0006    A(PC) =   0.0013
             ----------           ----------           ----------
 A(Tot)         -0.6868             -35.3166             616.7899    A(iso)=  193.5955
 Orientation: 
  X           0.7128487            0.7010868            0.0180024
  Y          -0.7013179            0.7126223            0.0179643
  Z          -0.0002344           -0.0254312            0.9996765

Notes:  (1) The A matrix conforms to the "SAI" spin Hamiltonian convention.
        (2) Tensor is right-handed.

 -----------------------------------------------------------
 Nucleus   1Cl: A:ISTP=   35 I=  1.5 P= 52.3376 MHz/au**3
                Q:ISTP=   35 I=  1.5 Q= -0.0817 barn     
 -----------------------------------------------------------
 Solving for nuclear perturbation:
Forming RHS of the CP-SCF equations         ... 
Calc. nucleus orbit integrals (SHARK)       ... done

------------------------------------------------------------------------------
                           ORCA CP-SCF CALCULATION
------------------------------------------------------------------------------

Input orbitals are from        ... C-Cl-F-H_radical_EPR.gbw
Input Perturbation             ... C-Cl-F-H_radical_EPR.pin.tmp
Wavefunction output            ... C-Cl-F-H_radical_EPR.pout.tmp
Perturbation mode              ... Imaginary perturbation
Solver                         ... POPLE
Max. number of iterations      ... 64
Convergence tolerance          ... 1.000e-03
Integral handling              ... Direct
DFT GridXC                     ... 1
Number of perturbations        ... 3
Number of operators            ... 2
Orbital ranges used for CP-SCF:
 Operator 0:  Orbitals   0... 16  to  17...179
 Operator 1:  Orbitals   0... 15  to  16...179
Variables per perturbation     ... 5395
DFT calculation                         ... on
XC functional terms                     ... off
Hybrid DFT                              ... on
   Exchange mixing (SCF)                ...  0.250
   Exchange mixing (CP-SCF)             ...  0.250
   GGA exch. scaling(SCF)               ...  0.750
   GGA exch. scaling (CP-SCF)           ...  0.750
   GGA corr. scaling (SCF)              ...  1.000
   GGA corr. scaling (CP-SCF)           ...  1.000

CP-SCF GRID
-----------

General Integration Accuracy     IntAcc      ... 3.467
Radial Grid Type                 RadialGrid  ... OptM3 with GC (2021)
Angular Grid (max. ang.)         AngularGrid ... 1 (Lebedev-50)
Angular grid pruning method      GridPruning ... 4 (adaptive)
Weight generation scheme         WeightScheme... Becke
Basis function cutoff            BFCut       ... 1.0000e-11
Integration weight cutoff        WCut        ... 1.0000e-14
Angular grids for H and He will be reduced by one unit
Partially contracted basis set               ... off
Rotationally invariant grid construction     ... off

Total number of grid points                  ...     3782
Total number of batches                      ...       61
Average number of points per batch           ...       62
Average number of grid points per atom       ...      946

Memory available               ... 888.4 MB
Memory needed per perturbation ...   6.3 MB
Perturbations treated per batch... 3
Number of batches              ... 1
     CP-SCF ITERATION   0:   5.1501e+00 (   8.0 sec   0/  3 done)
     CP-SCF ITERATION   1:   3.6431e-01 (   7.6 sec   0/  3 done)
     CP-SCF ITERATION   2:   3.7101e-02 (   7.6 sec   0/  3 done)
     CP-SCF ITERATION   3:   3.7856e-03 (   7.7 sec   0/  3 done)
     CP-SCF ITERATION   4:   3.2487e-04 (   7.6 sec   3/  3 done)
                    *** THE CP-SCF HAS CONVERGED ***

Forming final perturbed densities           ... done
Transforming perturbed density to AO basis  ... done

 Raw HFC matrix (all values in MHz): 
 -----------------------------------
               -10.9815               1.9784             -16.5405
                 1.8988              -5.7829              -1.8108
               -16.5551              -1.8118              59.5805

 A(FC)          14.3356              14.3356              14.3356
 A(SD)         -19.4593             -29.6755              49.1348
 A(ORB+DIA)     -0.4813               0.4230              -0.1325    A(PC) =  -0.0636
 A(ORB)         -0.4813               0.4229              -0.1325    A(PC) =  -0.0636
 A(DIA)          0.0000               0.0002              -0.0000    A(PC) =   0.0001
             ----------           ----------           ----------
 A(Tot)         -5.6049             -14.9168              63.3379    A(iso)=   14.2721
 Orientation: 
  X          -0.1546136            0.9636358           -0.2179465
  Y          -0.9857448           -0.1652782           -0.0314688
  Z          -0.0663463            0.2099741            0.9754533

Notes:  (1) The A matrix conforms to the "SAI" spin Hamiltonian convention.
        (2) Tensor is right-handed.


--------------------------------------------------------------------------------
----------------------------------------------------------------------------
                           ORCA EULER ANGLE PROGRAM
----------------------------------------------------------------------------

Only g-tensor available        -->  using g-tensor as reference tensor

Reference tensor               ...  g

g-tensor ordering              ...  |g_min> --> |gx>
                                    |g_mid> --> |gy>
                                    |g_max> --> |gz>

A- and EFG-tensor ordering     ...  the axes |Ax>, |Qx>, |Ay>, etc. are assigned
                                    such that the Euler rotation is minimal. You
                                    can find the respective eigenvalues as Ax,
                                    EFGx, Ay, etc. in the tables below.
                                    The relation of |Ax>, |Ay>,  etc. to Amin, Amid, etc.
                                    (as printed in the ORCA EPR/NMR CALCULATION Output)
                                    is obtained in the detailed printout.

Euler rotation around          ...  z - y - z
   First rotation              -->  by alpha around z
   Second rotation             -->  by beta around y'
   Third rotation              -->  by gamma around z''
   Positive / Negative angle   -->  clockwise / counterclockwise rotation

Plot EFG-tensors                    (-)
Plot HFC-tensors                    (-)
Detailed Printout                   (-)

-------------------------------------------------------------------------
          Euler rotation of hyperfine tensor to g-tensor
-------------------------------------------------------------------------

-------------------------------------------------------------------
 Atom  |   Alpha    Beta    Gamma   |   Ax       Ay       Az 
       |          [degrees]         |           [MHz]         
-------------------------------------------------------------------
  0C     -112.2      9.7    111.5     454.28   234.17   232.42
  3H     -108.4     35.9     91.0      -8.83    31.19   -39.77
  2F     -120.6     14.5    120.0     616.79    -0.69   -35.32
  1Cl      84.0     23.1    -94.2      63.34   -14.92    -5.60
-------------------------------------------------------------------


Maximum memory used throughout the entire EPRNMR-calculation: 151.1 MB

Timings for individual modules:

Sum of individual times         ...      272.280 sec (=   4.538 min)
GTO integral calculation        ...        0.335 sec (=   0.006 min)   0.1 %
Spin-Orbit-Coupling Matrices    ...       44.752 sec (=   0.746 min)  16.4 %
SCF iterations                  ...        6.836 sec (=   0.114 min)   2.5 %
EPR/NMR calculation             ...      220.357 sec (=   3.673 min)  80.9 %



                             ****ORCA TERMINATED NORMALLY****
