
                                 *****************
                                 * O   R   C   A *
                                 *****************

                                            #,                                       
                                            ###                                      
                                            ####                                     
                                            #####                                    
                                            ######                                   
                                           ########,                                 
                                     ,,################,,,,,                         
                               ,,#################################,,                 
                          ,,##########################################,,             
                       ,#########################################, ''#####,          
                    ,#############################################,,   '####,        
                  ,##################################################,,,,####,       
                ,###########''''           ''''###############################       
              ,#####''   ,,,,##########,,,,          '''####'''          '####       
            ,##' ,,,,###########################,,,                        '##       
           ' ,,###''''                  '''############,,,                           
         ,,##''                                '''############,,,,        ,,,,,,###''
      ,#''                                            '''#######################'''  
     '                                                          ''''####''''         
             ,#######,   #######,   ,#######,      ##                                
            ,#'     '#,  ##    ##  ,#'     '#,    #''#        ######   ,####,        
            ##       ##  ##   ,#'  ##            #'  '#       #        #'  '#        
            ##       ##  #######   ##           ,######,      #####,   #    #        
            '#,     ,#'  ##    ##  '#,     ,#' ,#      #,         ##   #,  ,#        
             '#######'   ##     ##  '#######'  #'      '#     #####' # '####'        



                  #######################################################
                  #                        -***-                        #
                  #          Department of theory and spectroscopy      #
                  #    Directorship and core code : Frank Neese         #
                  #        Max Planck Institute fuer Kohlenforschung    #
                  #                Kaiser Wilhelm Platz 1               #
                  #                 D-45470 Muelheim/Ruhr               #
                  #                      Germany                        #
                  #                                                     #
                  #                  All rights reserved                #
                  #                        -***-                        #
                  #######################################################


                         Program Version 5.0.4 -  RELEASE  -


 With contributions from (in alphabetic order):
   Daniel Aravena         : Magnetic Suceptibility
   Michael Atanasov       : Ab Initio Ligand Field Theory (pilot matlab implementation)
   Alexander A. Auer      : GIAO ZORA, VPT2 properties, NMR spectrum
   Ute Becker             : Parallelization
   Giovanni Bistoni       : ED, misc. LED, open-shell LED, HFLD
   Martin Brehm           : Molecular dynamics
   Dmytro Bykov           : SCF Hessian
   Vijay G. Chilkuri      : MRCI spin determinant printing, contributions to CSF-ICE
   Dipayan Datta          : RHF DLPNO-CCSD density
   Achintya Kumar Dutta   : EOM-CC, STEOM-CC
   Dmitry Ganyushin       : Spin-Orbit,Spin-Spin,Magnetic field MRCI
   Miquel Garcia          : C-PCM and meta-GGA Hessian, CC/C-PCM, Gaussian charge scheme
   Yang Guo               : DLPNO-NEVPT2, F12-NEVPT2, CIM, IAO-localization
   Andreas Hansen         : Spin unrestricted coupled pair/coupled cluster methods
   Benjamin Helmich-Paris : MC-RPA, TRAH-SCF, COSX integrals
   Lee Huntington         : MR-EOM, pCC
   Robert Izsak           : Overlap fitted RIJCOSX, COSX-SCS-MP3, EOM
   Marcus Kettner         : VPT2
   Christian Kollmar      : KDIIS, OOCD, Brueckner-CCSD(T), CCSD density, CASPT2, CASPT2-K
   Simone Kossmann        : Meta GGA functionals, TD-DFT gradient, OOMP2, MP2 Hessian
   Martin Krupicka        : Initial AUTO-CI
   Lucas Lang             : DCDCAS
   Marvin Lechner         : AUTO-CI (C++ implementation), FIC-MRCC
   Dagmar Lenk            : GEPOL surface, SMD
   Dimitrios Liakos       : Extrapolation schemes; Compound Job, initial MDCI parallelization
   Dimitrios Manganas     : Further ROCIS development; embedding schemes
   Dimitrios Pantazis     : SARC Basis sets
   Anastasios Papadopoulos: AUTO-CI, single reference methods and gradients
   Taras Petrenko         : DFT Hessian,TD-DFT gradient, ASA, ECA, R-Raman, ABS, FL, XAS/XES, NRVS
   Peter Pinski           : DLPNO-MP2, DLPNO-MP2 Gradient
   Christoph Reimann      : Effective Core Potentials
   Marius Retegan         : Local ZFS, SOC
   Christoph Riplinger    : Optimizer, TS searches, QM/MM, DLPNO-CCSD(T), (RO)-DLPNO pert. Triples
   Tobias Risthaus        : Range-separated hybrids, TD-DFT gradient, RPA, STAB
   Michael Roemelt        : Original ROCIS implementation
   Masaaki Saitow         : Open-shell DLPNO-CCSD energy and density
   Barbara Sandhoefer     : DKH picture change effects
   Avijit Sen             : IP-ROCIS
   Kantharuban Sivalingam : CASSCF convergence, NEVPT2, FIC-MRCI
   Bernardo de Souza      : ESD, SOC TD-DFT
   Georgi Stoychev        : AutoAux, RI-MP2 NMR, DLPNO-MP2 response
   Willem Van den Heuvel  : Paramagnetic NMR
   Boris Wezisla          : Elementary symmetry handling
   Frank Wennmohs         : Technical directorship


 We gratefully acknowledge several colleagues who have allowed us to
 interface, adapt or use parts of their codes:
   Stefan Grimme, W. Hujo, H. Kruse, P. Pracht,  : VdW corrections, initial TS optimization,
                  C. Bannwarth, S. Ehlert          DFT functionals, gCP, sTDA/sTD-DF
   Ed Valeev, F. Pavosevic, A. Kumar             : LibInt (2-el integral package), F12 methods
   Garnet Chan, S. Sharma, J. Yang, R. Olivares  : DMRG
   Ulf Ekstrom                                   : XCFun DFT Library
   Mihaly Kallay                                 : mrcc  (arbitrary order and MRCC methods)
   Jiri Pittner, Ondrej Demel                    : Mk-CCSD
   Frank Weinhold                                : gennbo (NPA and NBO analysis)
   Christopher J. Cramer and Donald G. Truhlar   : smd solvation model
   Lars Goerigk                                  : TD-DFT with DH, B97 family of functionals
   V. Asgeirsson, H. Jonsson                     : NEB implementation
   FAccTs GmbH                                   : IRC, NEB, NEB-TS, DLPNO-Multilevel, CI-OPT
                                                   MM, QMMM, 2- and 3-layer-ONIOM, Crystal-QMMM,
                                                   LR-CPCM, SF, NACMEs, symmetry and pop. for TD-DFT,
                                                   nearIR, NL-DFT gradient (VV10), updates on ESD,
                                                   ML-optimized integration grids
   S Lehtola, MJT Oliveira, MAL Marques          : LibXC Library
   Liviu Ungur et al                             : ANISO software


 Your calculation uses the libint2 library for the computation of 2-el integrals
 For citations please refer to: http://libint.valeyev.net

 Your ORCA version has been built with support for libXC version: 5.1.0
 For citations please refer to: https://tddft.org/programs/libxc/

 This ORCA versions uses:
   CBLAS   interface :  Fast vector & matrix operations
   LAPACKE interface :  Fast linear algebra routines
   SCALAPACK package :  Parallel linear algebra routines
   Shared memory     :  Shared parallel matrices
   BLAS/LAPACK       :  OpenBLAS 0.3.15  USE64BITINT DYNAMIC_ARCH NO_AFFINITY SkylakeX SINGLE_THREADED
        Core in use  :  SkylakeX
   Copyright (c) 2011-2014, The OpenBLAS Project


================================================================================

----- Orbital basis set information -----
Your calculation utilizes the basis: aug-cc-pVTZ-J 
  Obtained from the EMSL Basis Set Exchange (bse.pnl.gov) Feb. 2017
  H, C-O : P. F. Provasi, G. A. Aucar, S. P. A. Sauer, J. Chem. Phys. 115, 1324 (2001)
           R. A. Kendall, T. H. Dunning, Jr., R. J. Harrison, J. Chem. Phys. 96, 6796 (1992)
           T. Enevoldsen, J. Oddershede, S. P. A. Sauer, Theor. Chem. Acc. 100, 275 (1998)
           T. H. Dunning, Jr., J. Chem. Phys. 90, 1007 (1989)
       B : P. F. Provasi, S. P. A. Sauer, J. Chem. Phys. 133, 054308 (2010)
           T. Enevoldsen, J. Oddershede, S. P. A. Sauer, Theor. Chem. Acc. 100, 275 (1998)
           T. H. Dunning, Jr., J. Chem. Phys. 90, 1007 (1989)
       F : R. A. Kendall, T. H. Dunning, Jr., R. J. Harrison, J. Chem. Phys. 96, 6796 (1992)
           T. Enevoldsen, J. Oddershede, S. P. A. Sauer, Theor. Chem. Acc. 100, 275 (1998)
           T. H. Dunning, Jr., J. Chem. Phys. 90, 1007 (1989)
           V. Barone, P. F. Provasi, J. E. Peralta, J. P. Snyder, S. P. A. Sauer, R. H. Contreras, J. Phys. Chem. A 107, 4748 (2003)
      Al : D. E. Woon, T. H. Dunning, Jr., J. Chem. Phys. 98, 1358 (1993)
           P. F. Provasi, S. P. A. Sauer, J. Chem. Phys. 133, 054308 (2010)
           T. Enevoldsen, J. Oddershede, S. P. A. Sauer, Theor. Chem. Acc. 100, 275 (1998)
      Si : D. E. Woon, T. H. Dunning, Jr., J. Chem. Phys. 98, 1358 (1993)
           P. F. Provasi, S. P. A. Sauer, J. Chem. Phys. 133, 054308 (2010)
           S. P. A. Sauer, W. T. Raynes, J. Chem. Phys. 113, 3121 (2000)
           S. P. A. Sauer, W. T. Raynes, R. A. Nicholls, J. Chem. Phys. 115, 5994 (2001)
   P, Cl : D. E. Woon, T. H. Dunning, Jr., J. Chem. Phys. 98, 1358 (1993)
           P. F. Provasi, S. P. A. Sauer, J. Chem. Phys. 133, 054308 (2010)
       S : D. E. Woon, T. H. Dunning, Jr., J. Chem. Phys. 98, 1358 (1993)
           P. F. Provasi, G. A. Aucar, S. P. A. Sauer, J. Chem. Phys. 115, 1324 (2001)
   Sc-Zn : E. D. Hedegård, J. Kongsted, S. P. A. Sauer, J. Chem. Theory Comput. 7, 4077 (2011)
           N. B. Balabanov, K. A. Peterson, J. Chem. Phys. 123, 64107 (2005)
      Se : Y. Yu. Rusakov, L. B. Krivdin, S. P. A. Sauer, E. P. Levanova, G. G. Levkovskaya, Magn. Res. Chem. 48, 44-52 (2010)

================================================================================
                                        WARNINGS
                       Please study these warnings very carefully!
================================================================================


WARNING: Geometry Optimization
  ===> : Switching off AutoStart
         For restart on a previous wavefunction, please use MOREAD

INFO   : the flag for use of the SHARK integral package has been found!



***************************************
The coordinates will be read from file: 
***************************************


================================================================================

----- Orbital basis set information -----
Your calculation utilizes the basis: aug-cc-pVTZ-J 
  Obtained from the EMSL Basis Set Exchange (bse.pnl.gov) Feb. 2017
  H, C-O : P. F. Provasi, G. A. Aucar, S. P. A. Sauer, J. Chem. Phys. 115, 1324 (2001)
           R. A. Kendall, T. H. Dunning, Jr., R. J. Harrison, J. Chem. Phys. 96, 6796 (1992)
           T. Enevoldsen, J. Oddershede, S. P. A. Sauer, Theor. Chem. Acc. 100, 275 (1998)
           T. H. Dunning, Jr., J. Chem. Phys. 90, 1007 (1989)
       B : P. F. Provasi, S. P. A. Sauer, J. Chem. Phys. 133, 054308 (2010)
           T. Enevoldsen, J. Oddershede, S. P. A. Sauer, Theor. Chem. Acc. 100, 275 (1998)
           T. H. Dunning, Jr., J. Chem. Phys. 90, 1007 (1989)
       F : R. A. Kendall, T. H. Dunning, Jr., R. J. Harrison, J. Chem. Phys. 96, 6796 (1992)
           T. Enevoldsen, J. Oddershede, S. P. A. Sauer, Theor. Chem. Acc. 100, 275 (1998)
           T. H. Dunning, Jr., J. Chem. Phys. 90, 1007 (1989)
           V. Barone, P. F. Provasi, J. E. Peralta, J. P. Snyder, S. P. A. Sauer, R. H. Contreras, J. Phys. Chem. A 107, 4748 (2003)
      Al : D. E. Woon, T. H. Dunning, Jr., J. Chem. Phys. 98, 1358 (1993)
           P. F. Provasi, S. P. A. Sauer, J. Chem. Phys. 133, 054308 (2010)
           T. Enevoldsen, J. Oddershede, S. P. A. Sauer, Theor. Chem. Acc. 100, 275 (1998)
      Si : D. E. Woon, T. H. Dunning, Jr., J. Chem. Phys. 98, 1358 (1993)
           P. F. Provasi, S. P. A. Sauer, J. Chem. Phys. 133, 054308 (2010)
           S. P. A. Sauer, W. T. Raynes, J. Chem. Phys. 113, 3121 (2000)
           S. P. A. Sauer, W. T. Raynes, R. A. Nicholls, J. Chem. Phys. 115, 5994 (2001)
   P, Cl : D. E. Woon, T. H. Dunning, Jr., J. Chem. Phys. 98, 1358 (1993)
           P. F. Provasi, S. P. A. Sauer, J. Chem. Phys. 133, 054308 (2010)
       S : D. E. Woon, T. H. Dunning, Jr., J. Chem. Phys. 98, 1358 (1993)
           P. F. Provasi, G. A. Aucar, S. P. A. Sauer, J. Chem. Phys. 115, 1324 (2001)
   Sc-Zn : E. D. Hedegård, J. Kongsted, S. P. A. Sauer, J. Chem. Theory Comput. 7, 4077 (2011)
           N. B. Balabanov, K. A. Peterson, J. Chem. Phys. 123, 64107 (2005)
      Se : Y. Yu. Rusakov, L. B. Krivdin, S. P. A. Sauer, E. P. Levanova, G. G. Levkovskaya, Magn. Res. Chem. 48, 44-52 (2010)

================================================================================
                                        WARNINGS
                       Please study these warnings very carefully!
================================================================================


INFO   : the flag for use of the SHARK integral package has been found!

================================================================================
                                       INPUT FILE
================================================================================
NAME = /beegfs/scratch/jdstates/Radical_Geometry/CX3_geometry_calcs/input_files/CX3_radical/C-Cl-F-H_radical_IN-PROGRESS/C-Cl-F-H_radical.inp
|  1> # Formula: C-Cl-F-H_radical
|  2> 
|  3> ! UKS NORI TightSCF PBE0 aug-cc-PVTZ-J xyzfile opt NOPOP
|  4> %base "C-Cl-F-H_radical_opt" 
|  5> 
|  6> * xyz 0 2
|  7> C	-0.144	0.109	0.357
|  8> Cl	1.544	-0.231	-0.084
|  9> F	-0.935	-0.920	-0.115
| 10> H	-0.465	1.042	-0.158
| 11> *
| 12> 
| 13> $new_job
| 14> ! UKS NORI PBE0 aug-cc-PVTZ-J NBO
| 15> %base "C-Cl-F-H_radical_EPR"
| 16> 
| 17> *xyzfile 0 2
| 18> 
| 19> %EPRNMR
| 20> 	GTENSOR		TRUE
| 21> 	NUCLEI		= ALL C  {AISO, ADIP, AORB}
| 22> 	NUCLEI		= ALL H  {AISO, ADIP, AORB}
| 23> 	NUCLEI		= ALL F  {AISO, ADIP, AORB}
| 24> 	NUCLEI		= ALL Cl {AISO, ADIP, AORB}
| 25> 	NUCLEI		= ALL Br {AISO, ADIP, AORB}
| 26> 	NUCLEI		= ALL I  {AISO, ADIP, AORB}
| 27> END
| 28> 
| 29> %NBO
| 30> 	NBOKEYLIST = "$NBO NBO NPA AONBO=C PRINT=1 ARCHIVE $END"
| 31> END
| 32> 
| 33>                          ****END OF INPUT****
================================================================================


                 $$$$$$$$$$$$$$$$$$$$$$$$$$$$$$$$$$$$$$$$$$$$$$ 
                 $ THERE ARE  2 JOBS TO BE PROCESSED THIS RUN $
                 $$$$$$$$$$$$$$$$$$$$$$$$$$$$$$$$$$$$$$$$$$$$$$ 




                 $$$$$$$$$$$$$$$$  JOB NUMBER  1 $$$$$$$$$$$$$$


                       *****************************
                       * Geometry Optimization Run *
                       *****************************

Geometry optimization settings:
Update method            Update   .... BFGS
Choice of coordinates    CoordSys .... Z-matrix Internals
Initial Hessian          InHess   .... Almoef's Model

Convergence Tolerances:
Energy Change            TolE     ....  5.0000e-06 Eh
Max. Gradient            TolMAXG  ....  3.0000e-04 Eh/bohr
RMS Gradient             TolRMSG  ....  1.0000e-04 Eh/bohr
Max. Displacement        TolMAXD  ....  4.0000e-03 bohr
RMS Displacement         TolRMSD  ....  2.0000e-03 bohr
Strict Convergence                ....  False
------------------------------------------------------------------------------
                        ORCA OPTIMIZATION COORDINATE SETUP
------------------------------------------------------------------------------

The optimization will be done in new redundant internal coordinates
Making redundant internal coordinates   ...  (new redundants) done
Evaluating the initial hessian          ...  (Almloef) done
Evaluating the coordinates              ...  done
Calculating the B-matrix                .... done
Calculating the G-matrix                .... done
Diagonalizing the G-matrix              .... done
The first mode is                       ....    1
The number of degrees of freedom        ....    6

    -----------------------------------------------------------------
                    Redundant Internal Coordinates


    -----------------------------------------------------------------
         Definition                    Initial Value    Approx d2E/dq
    -----------------------------------------------------------------
      1. B(Cl  1,C   0)                  1.7775         0.337707   
      2. B(F   2,C   0)                  1.3811         0.537331   
      3. B(H   3,C   0)                  1.1130         0.330932   
      4. A(Cl  1,C   0,H   3)          108.6290         0.327665   
      5. A(F   2,C   0,H   3)          107.5332         0.336209   
      6. A(Cl  1,C   0,F   2)          108.4577         0.392705   
      7. I(Cl  1,H   3,F   2,C   0)    -57.4496         0.004389   
    -----------------------------------------------------------------

Number of atoms                         .... 4
Number of degrees of freedom            .... 7

         *************************************************************
         *                GEOMETRY OPTIMIZATION CYCLE   1            *
         *************************************************************
---------------------------------
CARTESIAN COORDINATES (ANGSTROEM)
---------------------------------
  C     -0.144000    0.109000    0.357000
  Cl     1.544000   -0.231000   -0.084000
  F     -0.935000   -0.920000   -0.115000
  H     -0.465000    1.042000   -0.158000

----------------------------
CARTESIAN COORDINATES (A.U.)
----------------------------
  NO LB      ZA    FRAG     MASS         X           Y           Z
   0 C     6.0000    0    12.011   -0.272121    0.205980    0.674632
   1 Cl   17.0000    0    35.453    2.917737   -0.436527   -0.158737
   2 F     9.0000    0    18.998   -1.766894   -1.738548   -0.217319
   3 H     1.0000    0     1.008   -0.878723    1.969095   -0.298577

--------------------------------
INTERNAL COORDINATES (ANGSTROEM)
--------------------------------
 C      0   0   0     0.000000000000     0.00000000     0.00000000
 Cl     1   0   0     1.777477144719     0.00000000     0.00000000
 F      1   2   0     1.381052497192   108.45767065     0.00000000
 H      1   2   3     1.112993710674   108.62900614   243.40556124

---------------------------
INTERNAL COORDINATES (A.U.)
---------------------------
 C      0   0   0     0.000000000000     0.00000000     0.00000000
 Cl     1   0   0     3.358945012824     0.00000000     0.00000000
 F      1   2   0     2.609810996261   108.45767065     0.00000000
 H      1   2   3     2.103253301951   108.62900614   243.40556124

---------------------
BASIS SET INFORMATION
---------------------
There are 4 groups of distinct atoms

 Group   1 Type C   : 15s6p3d1f contracted to 9s5p3d1f pattern {711111111/21111/111/1}
 Group   2 Type Cl  : 32s15p6d1f contracted to 10s7p6d1f pattern {121211111111/5511111/111111/1}
 Group   3 Type F   : 15s6p3d1f contracted to 9s5p3d1f pattern {711111111/21111/111/1}
 Group   4 Type H   : 10s3p1d contracted to 6s3p1d pattern {511111/111/1}

Atom   0C    basis set group =>   1
Atom   1Cl   basis set group =>   2
Atom   2F    basis set group =>   3
Atom   3H    basis set group =>   4
------------------------------------------------------------------------------
                           ORCA GTO INTEGRAL CALCULATION
------------------------------------------------------------------------------
------------------------------------------------------------------------------
                   ___                                                        
                  /   \      - P O W E R E D   B Y -                         
                 /     \                                                     
                 |  |  |   _    _      __       _____    __    __             
                 |  |  |  | |  | |    /  \     |  _  \  |  |  /  |          
                  \  \/   | |  | |   /    \    | | | |  |  | /  /          
                 / \  \   | |__| |  /  /\  \   | |_| |  |  |/  /          
                |  |  |   |  __  | /  /__\  \  |    /   |      \           
                |  |  |   | |  | | |   __   |  |    \   |  |\   \          
                \     /   | |  | | |  |  |  |  | |\  \  |  | \   \       
                 \___/    |_|  |_| |__|  |__|  |_| \__\ |__|  \__/        
                                                                              
                      - O R C A' S   B I G   F R I E N D -                    
                                      &                                       
                       - I N T E G R A L  F E E D E R -                       
                                                                              
 v1 FN, 2020, v2 2021                                                         
------------------------------------------------------------------------------


Reading SHARK input file C-Cl-F-H_radical_opt.SHARKINP.tmp ... ok
----------------------
SHARK INTEGRAL PACKAGE
----------------------

Number of atoms                             ...      4
Number of basis functions                   ...    199
Number of shells                            ...     83
Maximum angular momentum                    ...      3
Integral batch strategy                     ... SHARK/LIBINT Hybrid
RI-J (if used) integral strategy            ... SPLIT-RIJ (Revised 2003 algorithm where possible)
Printlevel                                  ...      1
Contraction scheme used                     ... PARTIAL GENERAL contraction
Coulomb Range Separation                    ... NOT USED
Exchange Range Separation                   ... NOT USED
Finite Nucleus Model                        ... NOT USED
Auxiliary Coulomb fitting basis             ... NOT available
Auxiliary J/K fitting basis                 ... NOT available
Auxiliary Correlation fitting basis         ... NOT available
Auxiliary 'external' fitting basis          ... NOT available
Integral threshold                          ...     2.500000e-11
Primitive cut-off                           ...     2.500000e-12
Primitive pair pre-selection threshold      ...     2.500000e-12

Calculating pre-screening integrals         ... done (  0.0 sec) Dimension = 83
Calculating pre-screening integrals (ORCA)  ... done (  0.1 sec) Dimension = 70
Organizing shell pair data                  ... done (  0.0 sec)
Shell pair information
Total number of shell pairs                 ...      3486
Shell pairs after pre-screening             ...      2965
Total number of primitive shell pairs       ...      5205
Primitive shell pairs kept                  ...      3983
          la=0 lb=0:    739 shell pairs
          la=1 lb=0:    868 shell pairs
          la=1 lb=1:    258 shell pairs
          la=2 lb=0:    508 shell pairs
          la=2 lb=1:    285 shell pairs
          la=2 lb=2:     88 shell pairs
          la=3 lb=0:    112 shell pairs
          la=3 lb=1:     64 shell pairs
          la=3 lb=2:     37 shell pairs
          la=3 lb=3:      6 shell pairs

Calculating one electron integrals          ... done (  0.0 sec)
Calculating Nuclear repulsion               ... done (  0.0 sec) ENN=     91.516186252270 Eh

SHARK setup successfully completed in   0.3 seconds

Maximum memory used throughout the entire GTOINT-calculation: 39.0 MB
-------------------------------------------------------------------------------
                                 ORCA SCF
-------------------------------------------------------------------------------

------------
SCF SETTINGS
------------
Hamiltonian:
 Density Functional     Method          .... DFT(GTOs)
 Exchange Functional    Exchange        .... PBE
   PBE kappa parameter   XKappa         ....  0.804000
   PBE mue parameter    XMuePBE         ....  0.219520
 Correlation Functional Correlation     .... PBE
   PBE beta parameter  CBetaPBE         ....  0.066725
 LDA part of GGA corr.  LDAOpt          .... PW91-LDA
 Gradients option       PostSCFGGA      .... off
 Hybrid DFT is turned on
   Fraction HF Exchange ScalHFX         ....  0.250000
   Scaling of DF-GGA-X  ScalDFX         ....  0.750000
   Scaling of DF-GGA-C  ScalDFC         ....  1.000000
   Scaling of DF-LDA-C  ScalLDAC        ....  1.000000
   Perturbative correction              ....  0.000000
   Density functional embedding theory  .... OFF
   NL short-range parameter             ....  6.900000


General Settings:
 Integral files         IntName         .... C-Cl-F-H_radical_opt
 Hartree-Fock type      HFTyp           .... UHF
 Total Charge           Charge          ....    0
 Multiplicity           Mult            ....    2
 Number of Electrons    NEL             ....   33
 Basis Dimension        Dim             ....  180
 Nuclear Repulsion      ENuc            ....     91.5161862523 Eh

Convergence Acceleration:
 DIIS                   CNVDIIS         .... on
   Start iteration      DIISMaxIt       ....    12
   Startup error        DIISStart       ....  0.200000
   # of expansion vecs  DIISMaxEq       ....     5
   Bias factor          DIISBfac        ....   1.050
   Max. coefficient     DIISMaxC        ....  10.000
 Trust-Rad. Augm. Hess. CNVTRAH         .... auto
   Auto Start mean grad. ratio tolernc. ....  1.125000
   Auto Start start iteration           ....    20
   Auto Start num. interpolation iter.  ....    10
   Max. Number of Micro iterations      ....    16
   Max. Number of Macro iterations      .... Maxiter - #DIIS iter
   Number of Davidson start vectors     ....     2
   Converg. threshold I  (grad. norm)   ....   1.000e-05
   Converg. threshold II (energy diff.) ....   1.000e-08
   Grad. Scal. Fac. for Micro threshold ....   0.100
   Minimum threshold for Micro iter.    ....   0.010
   NR start threshold (gradient norm)   ....   0.001
   Initial trust radius                 ....   0.400
   Minimum AH scaling param. (alpha)    ....   1.000
   Maximum AH scaling param. (alpha)    .... 1000.000
   Orbital update algorithm             .... Taylor
   White noise on init. David. guess    .... on
   Maximum white noise                  ....   0.010
   Quad. conv. algorithm                .... NR
 SOSCF                  CNVSOSCF        .... off
 Level Shifting         CNVShift        .... on
   Level shift para.    LevelShift      ....    0.2500
   Turn off err/grad.   ShiftErr        ....    0.0010
 Zerner damping         CNVZerner       .... off
 Static damping         CNVDamp         .... on
   Fraction old density DampFac         ....    0.7000
   Max. Damping (<1)    DampMax         ....    0.9800
   Min. Damping (>=0)   DampMin         ....    0.0000
   Turn off err/grad.   DampErr         ....    0.1000
 Fernandez-Rico         CNVRico         .... off

SCF Procedure:
 Maximum # iterations   MaxIter         ....   125
 SCF integral mode      SCFMode         .... Direct
   Integral package                     .... SHARK and LIBINT hybrid scheme
 Reset frequency        DirectResetFreq ....    20
 Integral Threshold     Thresh          ....  2.500e-11 Eh
 Primitive CutOff       TCut            ....  2.500e-12 Eh

Convergence Tolerance:
 Convergence Check Mode ConvCheckMode   .... Total+1el-Energy
 Convergence forced     ConvForced      .... 0
 Energy Change          TolE            ....  1.000e-08 Eh
 1-El. energy change                    ....  1.000e-05 Eh
 DIIS Error             TolErr          ....  5.000e-07


Diagonalization of the overlap matrix:
Smallest eigenvalue                        ... 7.701e-05
Time for diagonalization                   ...    0.010 sec
Threshold for overlap eigenvalues          ... 1.000e-08
Number of eigenvalues below threshold      ... 0
Time for construction of square roots      ...    0.004 sec
Total time needed                          ...    0.014 sec

Time for model grid setup =    0.079 sec

------------------------------
INITIAL GUESS: MODEL POTENTIAL
------------------------------
Loading Hartree-Fock densities                     ... done
Calculating cut-offs                               ... done
Initializing the effective Hamiltonian             ... done
Setting up the integral package (SHARK)            ... done
Starting the Coulomb interaction                   ... done (   0.1 sec)
Reading the grid                                   ... done
Mapping shells                                     ... done
Starting the XC term evaluation                    ... done (   0.1 sec)
  promolecular density results
     # of electrons  =     32.999485470
     EX              =    -42.721686994
     EC              =     -1.197476570
     EX+EC           =    -43.919163564
Transforming the Hamiltonian                       ... done (   0.0 sec)
Diagonalizing the Hamiltonian                      ... done (   0.0 sec)
Back transforming the eigenvectors                 ... done (   0.0 sec)
Now organizing SCF variables                       ... done
                      ------------------
                      INITIAL GUESS DONE (   0.2 sec)
                      ------------------
-------------------
DFT GRID GENERATION
-------------------

General Integration Accuracy     IntAcc      ... 4.388
Radial Grid Type                 RadialGrid  ... OptM3 with GC (2021)
Angular Grid (max. ang.)         AngularGrid ... 4 (Lebedev-302)
Angular grid pruning method      GridPruning ... 4 (adaptive)
Weight generation scheme         WeightScheme... Becke
Basis function cutoff            BFCut       ... 1.0000e-11
Integration weight cutoff        WCut        ... 1.0000e-14
Angular grids for H and He will be reduced by one unit
Partially contracted basis set               ... off
Rotationally invariant grid construction     ... off

Total number of grid points                  ...    24089
Total number of batches                      ...      378
Average number of points per batch           ...       63
Average number of grid points per atom       ...     6022
Time for grid setup =    0.226 sec

--------------
SCF ITERATIONS
--------------
ITER       Energy         Delta-E        Max-DP      RMS-DP      [F,P]     Damp
               ***  Starting incremental Fock matrix formation  ***
  0   -598.4409116416   0.000000000000 0.02220856  0.00029544  0.0826710 0.7000
  1   -598.4473528779  -0.006441236335 0.01553425  0.00020738  0.0564364 0.7000
                               ***Turning on DIIS***
  2   -598.4505688785  -0.003216000557 0.03612926  0.00047788  0.0389159 0.0000
  3   -598.4582282969  -0.007659418365 0.00419705  0.00008326  0.0090489 0.0000
  4   -598.4586845574  -0.000456260548 0.00246280  0.00004381  0.0075966 0.0000
  5   -598.4589952473  -0.000310689938 0.00147564  0.00002874  0.0024684 0.0000
  6   -598.4590643750  -0.000069127628 0.00103291  0.00001832  0.0015447 0.0000
  7   -598.4590908674  -0.000026492415 0.00121329  0.00001849  0.0008836 0.0000
  8   -598.4591027119  -0.000011844475 0.00021961  0.00000368  0.0001569 0.0000
  9   -598.4591031169  -0.000000404994 0.00011108  0.00000142  0.0001131 0.0000
 10   -598.4591032534  -0.000000136515 0.00003556  0.00000062  0.0000483 0.0000
 11   -598.4591032739  -0.000000020495 0.00001023  0.00000021  0.0000407 0.0000
 12   -598.4591032792  -0.000000005300 0.00000704  0.00000011  0.0000087 0.0000
 13   -598.4591032799  -0.000000000722 0.00000165  0.00000004  0.0000018 0.0000
                            ***DIIS convergence achieved***

               *****************************************************
               *                     SUCCESS                       *
               *           SCF CONVERGED AFTER  14 CYCLES          *
               *****************************************************


----------------
TOTAL SCF ENERGY
----------------

Total Energy       :         -598.45910328 Eh          -16284.90011 eV

Components:
Nuclear Repulsion  :           91.51618625 Eh            2490.28203 eV
Electronic Energy  :         -689.97528953 Eh          -18775.18214 eV
One Electron Energy:        -1008.13803044 Eh          -27432.83047 eV
Two Electron Energy:          318.16274091 Eh            8657.64833 eV

Virial components:
Potential Energy   :        -1195.67121672 Eh          -32535.86790 eV
Kinetic Energy     :          597.21211344 Eh           16250.96779 eV
Virial Ratio       :            2.00208802


DFT components:
N(Alpha)           :       16.999993456163 electrons
N(Beta)            :       15.999999103392 electrons
N(Total)           :       32.999992559555 electrons
E(X)               :      -32.165844688660 Eh       
E(C)               :       -1.194227813800 Eh       
E(XC)              :      -33.360072502460 Eh       
DFET-embed. en.    :        0.000000000000 Eh       

---------------
SCF CONVERGENCE
---------------

  Last Energy change         ...   -1.6132e-10  Tolerance :   1.0000e-08
  Last MAX-Density change    ...    1.3166e-06  Tolerance :   1.0000e-07
  Last RMS-Density change    ...    2.3372e-08  Tolerance :   5.0000e-09
  Last DIIS Error            ...    7.2368e-07  Tolerance :   5.0000e-07

             **** THE GBW FILE WAS UPDATED (C-Cl-F-H_radical_opt.gbw) ****
             **** DENSITY C-Cl-F-H_radical_opt.scfp WAS UPDATED ****
             **** ENERGY FILE WAS UPDATED (C-Cl-F-H_radical_opt.en.tmp) ****
----------------------
UHF SPIN CONTAMINATION
----------------------

Warning: in a DFT calculation there is little theoretical justification to 
         calculate <S**2> as in Hartree-Fock theory. We will do it anyways
         but you should keep in mind that the values have only limited relevance

Expectation value of <S**2>     :     0.753999
Ideal value S*(S+1) for S=0.5   :     0.750000
Deviation                       :     0.003999

             **** THE GBW FILE WAS UPDATED (C-Cl-F-H_radical_opt.gbw) ****
             **** DENSITY C-Cl-F-H_radical_opt.scfp WAS UPDATED ****
----------------
ORBITAL ENERGIES
----------------
                 SPIN UP ORBITALS
  NO   OCC          E(Eh)            E(eV) 
   0   1.0000    -101.734003     -2768.3229 
   1   1.0000     -24.813297      -675.2041 
   2   1.0000     -10.400131      -283.0019 
   3   1.0000      -9.558944      -260.1121 
   4   1.0000      -7.292861      -198.4488 
   5   1.0000      -7.285757      -198.2555 
   6   1.0000      -7.284181      -198.2126 
   7   1.0000      -1.279224       -34.8094 
   8   1.0000      -0.902482       -24.5578 
   9   1.0000      -0.705012       -19.1844 
  10   1.0000      -0.561096       -15.2682 
  11   1.0000      -0.527043       -14.3416 
  12   1.0000      -0.514367       -13.9966 
  13   1.0000      -0.418836       -11.3971 
  14   1.0000      -0.381273       -10.3750 
  15   1.0000      -0.355530        -9.6745 
  16   1.0000      -0.285425        -7.7668 
  17   0.0000      -0.007635        -0.2078 
  18   0.0000       0.005770         0.1570 
  19   0.0000       0.032343         0.8801 
  20   0.0000       0.043521         1.1843 
  21   0.0000       0.047675         1.2973 
  22   0.0000       0.079491         2.1631 
  23   0.0000       0.085731         2.3329 
  24   0.0000       0.093550         2.5456 
  25   0.0000       0.096923         2.6374 
  26   0.0000       0.117839         3.2066 
  27   0.0000       0.133898         3.6435 
  28   0.0000       0.152504         4.1498 
  29   0.0000       0.179242         4.8774 
  30   0.0000       0.197807         5.3826 
  31   0.0000       0.210445         5.7265 
  32   0.0000       0.220045         5.9877 
  33   0.0000       0.234020         6.3680 
  34   0.0000       0.251835         6.8528 
  35   0.0000       0.257837         7.0161 
  36   0.0000       0.287667         7.8278 
  37   0.0000       0.303450         8.2573 
  38   0.0000       0.313425         8.5287 
  39   0.0000       0.333618         9.0782 
  40   0.0000       0.341606         9.2956 
  41   0.0000       0.352130         9.5820 
  42   0.0000       0.381444        10.3796 
  43   0.0000       0.398417        10.8415 
  44   0.0000       0.406587        11.0638 
  45   0.0000       0.410673        11.1750 
  46   0.0000       0.506917        13.7939 
  47   0.0000       0.540426        14.7057 
  48   0.0000       0.572160        15.5693 
  49   0.0000       0.585422        15.9301 
  50   0.0000       0.588037        16.0013 
  51   0.0000       0.659978        17.9589 
  52   0.0000       0.668912        18.2020 
  53   0.0000       0.680261        18.5108 
  54   0.0000       0.687263        18.7014 
  55   0.0000       0.695016        18.9124 
  56   0.0000       0.700833        19.0706 
  57   0.0000       0.754174        20.5221 
  58   0.0000       0.821643        22.3580 
  59   0.0000       0.837358        22.7857 
  60   0.0000       0.856482        23.3061 
  61   0.0000       0.865341        23.5471 
  62   0.0000       0.892875        24.2964 
  63   0.0000       0.937370        25.5071 
  64   0.0000       0.977103        26.5883 
  65   0.0000       1.026123        27.9222 
  66   0.0000       1.044939        28.4342 
  67   0.0000       1.075281        29.2599 
  68   0.0000       1.135268        30.8922 
  69   0.0000       1.187590        32.3160 
  70   0.0000       1.229156        33.4470 
  71   0.0000       1.274572        34.6829 
  72   0.0000       1.316157        35.8145 
  73   0.0000       1.367876        37.2218 
  74   0.0000       1.427885        38.8547 
  75   0.0000       1.458231        39.6805 
  76   0.0000       1.758296        47.8457 
  77   0.0000       1.973415        53.6994 
  78   0.0000       1.994675        54.2779 
  79   0.0000       2.038628        55.4739 
  80   0.0000       2.065705        56.2107 
  81   0.0000       2.073960        56.4353 
  82   0.0000       2.075879        56.4875 
  83   0.0000       2.086151        56.7671 
  84   0.0000       2.088022        56.8180 
  85   0.0000       2.105883        57.3040 
  86   0.0000       2.156401        58.6786 
  87   0.0000       2.204509        59.9877 
  88   0.0000       2.209988        60.1368 
  89   0.0000       2.261542        61.5397 
  90   0.0000       2.295289        62.4580 
  91   0.0000       2.333088        63.4866 
  92   0.0000       2.351986        64.0008 
  93   0.0000       2.369575        64.4794 
  94   0.0000       2.463798        67.0434 
  95   0.0000       2.489279        67.7367 
  96   0.0000       2.586220        70.3746 
  97   0.0000       2.604901        70.8830 
  98   0.0000       2.620969        71.3202 
  99   0.0000       2.678801        72.8939 
 100   0.0000       2.836539        77.1862 
 101   0.0000       2.895233        78.7833 
 102   0.0000       3.003602        81.7322 
 103   0.0000       3.052075        83.0512 
 104   0.0000       3.090116        84.0863 
 105   0.0000       3.154640        85.8421 
 106   0.0000       3.195840        86.9632 
 107   0.0000       3.248403        88.3935 
 108   0.0000       3.307730        90.0079 
 109   0.0000       3.382602        92.0453 
 110   0.0000       3.400953        92.5446 
 111   0.0000       3.469863        94.4198 
 112   0.0000       3.557143        96.7948 
 113   0.0000       3.626926        98.6937 
 114   0.0000       3.686329       100.3101 
 115   0.0000       3.799070       103.3780 
 116   0.0000       3.983928       108.4082 
 117   0.0000       4.100859       111.5900 
 118   0.0000       4.330725       117.8450 
 119   0.0000       4.562319       124.1470 
 120   0.0000       4.623842       125.8211 
 121   0.0000       4.726370       128.6111 
 122   0.0000       4.759754       129.5195 
 123   0.0000       4.850934       132.0006 
 124   0.0000       5.542770       150.8264 
 125   0.0000       5.676730       154.4717 
 126   0.0000       6.502716       176.9479 
 127   0.0000       6.738645       183.3679 
 128   0.0000       6.750987       183.7037 
 129   0.0000       6.797124       184.9591 
 130   0.0000       6.829258       185.8336 
 131   0.0000       6.854454       186.5192 
 132   0.0000       6.858846       186.6387 
 133   0.0000       6.928374       188.5306 
 134   0.0000       6.958851       189.3600 
 135   0.0000       7.011403       190.7900 
 136   0.0000       7.343927       199.8384 
 137   0.0000       7.387881       201.0345 
 138   0.0000       7.613317       207.1689 
 139   0.0000       8.754667       238.2266 
 140   0.0000       8.763699       238.4724 
 141   0.0000       8.821486       240.0448 
 142   0.0000       8.913711       242.5544 
 143   0.0000       8.960185       243.8190 
 144   0.0000       9.026889       245.6341 
 145   0.0000       9.359294       254.6793 
 146   0.0000       9.743487       265.1337 
 147   0.0000       9.876273       268.7471 
 148   0.0000       9.919813       269.9318 
 149   0.0000      10.271765       279.5089 
 150   0.0000      10.394338       282.8443 
 151   0.0000      12.018799       327.0481 
 152   0.0000      12.826696       349.0321 
 153   0.0000      20.150532       548.3238 
 154   0.0000      20.222258       550.2756 
 155   0.0000      20.847423       567.2872 
 156   0.0000      23.880568       649.8233 
 157   0.0000      23.886362       649.9810 
 158   0.0000      23.922180       650.9556 
 159   0.0000      23.938242       651.3927 
 160   0.0000      24.003503       653.1685 
 161   0.0000      27.468059       747.4439 
 162   0.0000      46.345226      1261.1177 
 163   0.0000      47.422876      1290.4421 
 164   0.0000      47.463548      1291.5488 
 165   0.0000      47.586091      1294.8834 
 166   0.0000      47.922718      1304.0435 
 167   0.0000      67.321640      1831.9150 
 168   0.0000      85.796024      2334.6285 
 169   0.0000      85.799688      2334.7282 
 170   0.0000      85.824081      2335.3920 
 171   0.0000      85.834480      2335.6749 
 172   0.0000      85.871901      2336.6932 
 173   0.0000     109.342349      2975.3566 
 174   0.0000     169.125640      4602.1426 
 175   0.0000     170.637063      4643.2705 
 176   0.0000     404.627361     11010.4702 
 177   0.0000     800.033415     21770.0160 
 178   0.0000     875.070121     23811.8686 
 179   0.0000    1899.573325     51690.0180 

                 SPIN DOWN ORBITALS
  NO   OCC          E(Eh)            E(eV) 
   0   1.0000    -101.733049     -2768.2970 
   1   1.0000     -24.809707      -675.1064 
   2   1.0000     -10.383694      -282.5547 
   3   1.0000      -9.558043      -260.0876 
   4   1.0000      -7.291758      -198.4188 
   5   1.0000      -7.283694      -198.1994 
   6   1.0000      -7.283172      -198.1852 
   7   1.0000      -1.270577       -34.5741 
   8   1.0000      -0.893174       -24.3045 
   9   1.0000      -0.681484       -18.5441 
  10   1.0000      -0.548366       -14.9218 
  11   1.0000      -0.518508       -14.1093 
  12   1.0000      -0.481128       -13.0922 
  13   1.0000      -0.408673       -11.1206 
  14   1.0000      -0.361023        -9.8239 
  15   1.0000      -0.353081        -9.6078 
  16   0.0000      -0.109328        -2.9750 
  17   0.0000      -0.001008        -0.0274 
  18   0.0000       0.013463         0.3664 
  19   0.0000       0.037540         1.0215 
  20   0.0000       0.048528         1.3205 
  21   0.0000       0.056789         1.5453 
  22   0.0000       0.083964         2.2848 
  23   0.0000       0.089250         2.4286 
  24   0.0000       0.098032         2.6676 
  25   0.0000       0.105644         2.8747 
  26   0.0000       0.125781         3.4227 
  27   0.0000       0.139727         3.8022 
  28   0.0000       0.156402         4.2559 
  29   0.0000       0.182471         4.9653 
  30   0.0000       0.204253         5.5580 
  31   0.0000       0.214772         5.8442 
  32   0.0000       0.228477         6.2172 
  33   0.0000       0.236796         6.4435 
  34   0.0000       0.260247         7.0817 
  35   0.0000       0.262313         7.1379 
  36   0.0000       0.294126         8.0036 
  37   0.0000       0.309338         8.4175 
  38   0.0000       0.320566         8.7231 
  39   0.0000       0.342988         9.3332 
  40   0.0000       0.351515         9.5652 
  41   0.0000       0.365630         9.9493 
  42   0.0000       0.388667        10.5762 
  43   0.0000       0.405910        11.0454 
  44   0.0000       0.414252        11.2724 
  45   0.0000       0.416515        11.3340 
  46   0.0000       0.517854        14.0915 
  47   0.0000       0.555542        15.1171 
  48   0.0000       0.581049        15.8111 
  49   0.0000       0.592802        16.1310 
  50   0.0000       0.593545        16.1512 
  51   0.0000       0.665106        18.0984 
  52   0.0000       0.675093        18.3702 
  53   0.0000       0.686139        18.6708 
  54   0.0000       0.691473        18.8159 
  55   0.0000       0.701161        19.0796 
  56   0.0000       0.705109        19.1870 
  57   0.0000       0.761923        20.7330 
  58   0.0000       0.829997        22.5854 
  59   0.0000       0.854478        23.2515 
  60   0.0000       0.867760        23.6129 
  61   0.0000       0.872721        23.7479 
  62   0.0000       0.898660        24.4538 
  63   0.0000       0.948848        25.8195 
  64   0.0000       0.983414        26.7601 
  65   0.0000       1.041101        28.3298 
  66   0.0000       1.053130        28.6571 
  67   0.0000       1.088448        29.6182 
  68   0.0000       1.151707        31.3395 
  69   0.0000       1.203608        32.7518 
  70   0.0000       1.240660        33.7601 
  71   0.0000       1.291162        35.1343 
  72   0.0000       1.326736        36.1023 
  73   0.0000       1.378710        37.5166 
  74   0.0000       1.439369        39.1672 
  75   0.0000       1.469512        39.9875 
  76   0.0000       1.766113        48.0584 
  77   0.0000       1.996718        54.3335 
  78   0.0000       2.011012        54.7224 
  79   0.0000       2.049448        55.7683 
  80   0.0000       2.074418        56.4478 
  81   0.0000       2.078962        56.5714 
  82   0.0000       2.081698        56.6459 
  83   0.0000       2.090368        56.8818 
  84   0.0000       2.094820        57.0030 
  85   0.0000       2.115063        57.5538 
  86   0.0000       2.163415        58.8695 
  87   0.0000       2.214392        60.2567 
  88   0.0000       2.217855        60.3509 
  89   0.0000       2.281912        62.0940 
  90   0.0000       2.310527        62.8726 
  91   0.0000       2.339928        63.6727 
  92   0.0000       2.360518        64.2330 
  93   0.0000       2.385497        64.9127 
  94   0.0000       2.476338        67.3846 
  95   0.0000       2.505858        68.1879 
  96   0.0000       2.593982        70.5859 
  97   0.0000       2.617193        71.2174 
  98   0.0000       2.630892        71.5902 
  99   0.0000       2.695568        73.3501 
 100   0.0000       2.862553        77.8940 
 101   0.0000       2.921894        79.5088 
 102   0.0000       3.032299        82.5130 
 103   0.0000       3.085676        83.9655 
 104   0.0000       3.109132        84.6038 
 105   0.0000       3.178687        86.4965 
 106   0.0000       3.224856        87.7528 
 107   0.0000       3.273109        89.0658 
 108   0.0000       3.345975        91.0486 
 109   0.0000       3.407762        92.7299 
 110   0.0000       3.425765        93.2198 
 111   0.0000       3.501313        95.2756 
 112   0.0000       3.589913        97.6865 
 113   0.0000       3.642016        99.1043 
 114   0.0000       3.701758       100.7300 
 115   0.0000       3.821007       103.9749 
 116   0.0000       3.995871       108.7332 
 117   0.0000       4.111459       111.8785 
 118   0.0000       4.341838       118.1474 
 119   0.0000       4.577565       124.5619 
 120   0.0000       4.631047       126.0172 
 121   0.0000       4.751057       129.2828 
 122   0.0000       4.769629       129.7882 
 123   0.0000       4.863337       132.3381 
 124   0.0000       5.551476       151.0633 
 125   0.0000       5.694022       154.9422 
 126   0.0000       6.510047       177.1474 
 127   0.0000       6.740715       183.4242 
 128   0.0000       6.753367       183.7685 
 129   0.0000       6.799957       185.0362 
 130   0.0000       6.830319       185.8624 
 131   0.0000       6.860571       186.6856 
 132   0.0000       6.865080       186.8083 
 133   0.0000       6.931270       188.6094 
 134   0.0000       6.963897       189.4973 
 135   0.0000       7.016700       190.9341 
 136   0.0000       7.350744       200.0239 
 137   0.0000       7.391330       201.1283 
 138   0.0000       7.620582       207.3666 
 139   0.0000       8.765945       238.5335 
 140   0.0000       8.774998       238.7798 
 141   0.0000       8.867281       241.2910 
 142   0.0000       8.924990       242.8613 
 143   0.0000       8.962425       243.8800 
 144   0.0000       9.044680       246.1183 
 145   0.0000       9.372224       255.0312 
 146   0.0000       9.754523       265.4341 
 147   0.0000       9.880503       268.8621 
 148   0.0000       9.920767       269.9578 
 149   0.0000      10.274201       279.5752 
 150   0.0000      10.405651       283.1522 
 151   0.0000      12.039850       327.6210 
 152   0.0000      12.829368       349.1048 
 153   0.0000      20.161124       548.6121 
 154   0.0000      20.225138       550.3540 
 155   0.0000      20.850310       567.3658 
 156   0.0000      23.881997       649.8622 
 157   0.0000      23.887948       650.0241 
 158   0.0000      23.923883       651.0020 
 159   0.0000      23.938487       651.3994 
 160   0.0000      24.004393       653.1927 
 161   0.0000      27.473839       747.6012 
 162   0.0000      46.362755      1261.5947 
 163   0.0000      47.425163      1290.5043 
 164   0.0000      47.464020      1291.5616 
 165   0.0000      47.587117      1294.9113 
 166   0.0000      47.923596      1304.0673 
 167   0.0000      67.327825      1832.0833 
 168   0.0000      85.797941      2334.6807 
 169   0.0000      85.801791      2334.7854 
 170   0.0000      85.826342      2335.4535 
 171   0.0000      85.834965      2335.6881 
 172   0.0000      85.873066      2336.7249 
 173   0.0000     109.346294      2975.4639 
 174   0.0000     169.126703      4602.1716 
 175   0.0000     170.646668      4643.5319 
 176   0.0000     404.628676     11010.5060 
 177   0.0000     800.039708     21770.1872 
 178   0.0000     875.070614     23811.8820 
 179   0.0000    1899.573742     51690.0294 
-------
TIMINGS
-------

Total SCF time: 0 days 0 hours 0 min 52 sec 

Total time                  ....      52.269 sec
Sum of individual times     ....      51.829 sec  ( 99.2%)

Fock matrix formation       ....      50.887 sec  ( 97.4%)
  XC integration            ....       6.844 sec  ( 13.4% of F)
    Basis function eval.    ....       1.229 sec  ( 18.0% of XC)
    Density eval.           ....       1.640 sec  ( 24.0% of XC)
    XC-Functional eval.     ....       0.490 sec  (  7.2% of XC)
    XC-Potential eval.      ....       3.137 sec  ( 45.8% of XC)
Diagonalization             ....       0.270 sec  (  0.5%)
Density matrix formation    ....       0.013 sec  (  0.0%)
Population analysis         ....       0.001 sec  (  0.0%)
Initial guess               ....       0.142 sec  (  0.3%)
Orbital Transformation      ....       0.000 sec  (  0.0%)
Orbital Orthonormalization  ....       0.000 sec  (  0.0%)
DIIS solution               ....       0.211 sec  (  0.4%)
Grid generation             ....       0.305 sec  (  0.6%)

Maximum memory used throughout the entire SCF-calculation: 256.4 MB

-------------------------   --------------------
FINAL SINGLE POINT ENERGY      -598.459103280046
-------------------------   --------------------

------------------------------------------------------------------------------
                         ORCA SCF GRADIENT CALCULATION
------------------------------------------------------------------------------

Gradient of the Kohn-Sham DFT energy:
Kohn-Sham wavefunction type      ... UKS
Hartree-Fock exchange scaling    ...    0.250
Number of operators              ...    2
Number of atoms                  ...    4
Basis set dimensions             ...  180
Integral neglect threshold       ... 2.5e-11
Integral primitive cutoff        ... 2.5e-12
SHARK Integral package           ... ON

Nuc. rep. gradient       (SHARK) ... done (  0.0 sec)
HCore & Overlap gradient (SHARK) ... done (  0.1 sec)
Two-Electron gradient    (SHARK) ... done ( 13.6 sec)
Exchange-correlation gradient    ... done

------------------
CARTESIAN GRADIENT
------------------

   1   C   :   -0.002715434    0.023286399    0.055952430
   2   Cl  :    0.019589890   -0.005377865   -0.014539876
   3   F   :   -0.015492813   -0.024014602   -0.022548020
   4   H   :   -0.001381644    0.006106068   -0.018864535

Difference to translation invariance:
           :    0.0000000000   -0.0000000000   -0.0000000000

Difference to rotation invariance:
           :   -0.0000322139    0.0000705304   -0.0000657648

Norm of the cartesian gradient     ...    0.0776183152
RMS gradient                       ...    0.0224064776
MAX gradient                       ...    0.0559524303

-------
TIMINGS
-------

Total SCF gradient time            ...       15.021 sec

One electron gradient       ....       0.061 sec  (  0.4%)
Two electron gradient       ....      13.646 sec  ( 90.8%)
XC gradient                 ....       1.206 sec  (  8.0%)

Maximum memory used throughout the entire SCFGRAD-calculation: 55.6 MB
------------------------------------------------------------------------------
                         ORCA GEOMETRY RELAXATION STEP
------------------------------------------------------------------------------

Reading the OPT-File                    .... done
Getting information on internals        .... done
Copying old internal coords+grads       .... done
Making the new internal coordinates     .... (new redundants).... done
Validating the new internal coordinates .... (new redundants).... done
Calculating the B-matrix                .... done
Calculating the G,G- and P matrices     .... done
Transforming gradient to internals      .... done
Projecting the internal gradient        .... done
Number of atoms                         ....   4
Number of internal coordinates          ....   7
Current Energy                          ....  -598.459103280 Eh
Current gradient norm                   ....     0.077618315 Eh/bohr
Maximum allowed component of the step   ....  0.300
Current trust radius                    ....  0.300
Evaluating the initial hessian          ....  (Almloef) done
Projecting the Hessian                  .... done
Forming the augmented Hessian           .... done
Diagonalizing the augmented Hessian     .... done
Last element of RFO vector              ....  0.973124508
Lowest eigenvalues of augmented Hessian:
 -0.010704875  0.126506255  0.331354011  0.335017488  0.339641472
Length of the computed step             ....  0.236639396
The final length of the internal step   ....  0.236639396
Converting the step to cartesian space:
 Initial RMS(Int)=    0.0894412846
Transforming coordinates:
 Iter   0:  RMS(Cart)=    0.0482691997 RMS(Int)=    0.0891748570
 Iter   1:  RMS(Cart)=    0.0038721171 RMS(Int)=    0.0053133993
 Iter   2:  RMS(Cart)=    0.0002993882 RMS(Int)=    0.0004086309
 Iter   3:  RMS(Cart)=    0.0000370508 RMS(Int)=    0.0000496291
 Iter   4:  RMS(Cart)=    0.0000022991 RMS(Int)=    0.0000035273
 Iter   5:  RMS(Cart)=    0.0000003146 RMS(Int)=    0.0000004068
 Iter   6:  RMS(Cart)=    0.0000000196 RMS(Int)=    0.0000000314
done
Storing new coordinates                 .... done

                                .--------------------.
          ----------------------|Geometry convergence|-------------------------
          Item                value                   Tolerance       Converged
          ---------------------------------------------------------------------
          RMS gradient        0.0203444168            0.0001000000      NO
          MAX gradient        0.0344780740            0.0003000000      NO
          RMS step            0.0894412846            0.0020000000      NO
          MAX step            0.1713317310            0.0040000000      NO
          ........................................................
          Max(Bonds)      0.0353      Max(Angles)    4.46
          Max(Dihed)        0.00      Max(Improp)    9.82
          ---------------------------------------------------------------------

The optimization has not yet converged - more geometry cycles are needed


    ---------------------------------------------------------------------------
                         Redundant Internal Coordinates
                            (Angstroem and degrees)

        Definition                    Value    dE/dq     Step     New-Value
    ----------------------------------------------------------------------------
     1. B(Cl  1,C   0)                1.7775  0.023237 -0.0353    1.7422   
     2. B(F   2,C   0)                1.3811  0.034478 -0.0333    1.3478   
     3. B(H   3,C   0)                1.1130  0.014244 -0.0221    1.0909   
     4. A(Cl  1,C   0,H   3)          108.63 -0.006295    4.29    112.92   
     5. A(F   2,C   0,H   3)          107.53 -0.018280    4.46    111.99   
     6. A(Cl  1,C   0,F   2)          108.46 -0.009070    3.98    112.44   
     7. I(Cl  1,H   3,F   2,C   0)    -57.45 -0.022575    9.82    -47.63   
    ----------------------------------------------------------------------------

         *************************************************************
         *                GEOMETRY OPTIMIZATION CYCLE   2            *
         *************************************************************
---------------------------------
CARTESIAN COORDINATES (ANGSTROEM)
---------------------------------
  C     -0.134572    0.097582    0.282726
  Cl     1.541177   -0.229339   -0.063965
  F     -0.937244   -0.918994   -0.089767
  H     -0.469361    1.050751   -0.128994

----------------------------
CARTESIAN COORDINATES (A.U.)
----------------------------
  NO LB      ZA    FRAG     MASS         X           Y           Z
   0 C     6.0000    0    12.011   -0.254305    0.184403    0.534275
   1 Cl   17.0000    0    35.453    2.912403   -0.433387   -0.120875
   2 F     9.0000    0    18.998   -1.771134   -1.736647   -0.169636
   3 H     1.0000    0     1.008   -0.886964    1.985631   -0.243764

--------------------------------
INTERNAL COORDINATES (ANGSTROEM)
--------------------------------
 C      0   0   0     0.000000000000     0.00000000     0.00000000
 Cl     1   0   0     1.742184725776     0.00000000     0.00000000
 F      1   2   0     1.347760860398   112.10538702     0.00000000
 H      1   2   3     1.090929842856   112.58370805   232.86222318

---------------------------
INTERNAL COORDINATES (A.U.)
---------------------------
 C      0   0   0     0.000000000000     0.00000000     0.00000000
 Cl     1   0   0     3.292252006417     0.00000000     0.00000000
 F      1   2   0     2.546898920170   112.10538702     0.00000000
 H      1   2   3     2.061558634319   112.58370805   232.86222318

------------------------------------------------------------------------------
                   ___                                                        
                  /   \      - P O W E R E D   B Y -                         
                 /     \                                                     
                 |  |  |   _    _      __       _____    __    __             
                 |  |  |  | |  | |    /  \     |  _  \  |  |  /  |          
                  \  \/   | |  | |   /    \    | | | |  |  | /  /          
                 / \  \   | |__| |  /  /\  \   | |_| |  |  |/  /          
                |  |  |   |  __  | /  /__\  \  |    /   |      \           
                |  |  |   | |  | | |   __   |  |    \   |  |\   \          
                \     /   | |  | | |  |  |  |  | |\  \  |  | \   \       
                 \___/    |_|  |_| |__|  |__|  |_| \__\ |__|  \__/        
                                                                              
                      - O R C A' S   B I G   F R I E N D -                    
                                      &                                       
                       - I N T E G R A L  F E E D E R -                       
                                                                              
 v1 FN, 2020, v2 2021                                                         
------------------------------------------------------------------------------


Reading SHARK input file C-Cl-F-H_radical_opt.SHARKINP.tmp ... ok
----------------------
SHARK INTEGRAL PACKAGE
----------------------

Number of atoms                             ...      4
Number of basis functions                   ...    199
Number of shells                            ...     83
Maximum angular momentum                    ...      3
Integral batch strategy                     ... SHARK/LIBINT Hybrid
RI-J (if used) integral strategy            ... SPLIT-RIJ (Revised 2003 algorithm where possible)
Printlevel                                  ...      1
Contraction scheme used                     ... PARTIAL GENERAL contraction
Coulomb Range Separation                    ... NOT USED
Exchange Range Separation                   ... NOT USED
Finite Nucleus Model                        ... NOT USED
Auxiliary Coulomb fitting basis             ... NOT available
Auxiliary J/K fitting basis                 ... NOT available
Auxiliary Correlation fitting basis         ... NOT available
Auxiliary 'external' fitting basis          ... NOT available
Integral threshold                          ...     2.500000e-11
Primitive cut-off                           ...     2.500000e-12
Primitive pair pre-selection threshold      ...     2.500000e-12

Calculating pre-screening integrals         ... done (  0.0 sec) Dimension = 83
Calculating pre-screening integrals (ORCA)  ... done (  0.1 sec) Dimension = 70
Organizing shell pair data                  ... done (  0.0 sec)
Shell pair information
Total number of shell pairs                 ...      3486
Shell pairs after pre-screening             ...      2969
Total number of primitive shell pairs       ...      5205
Primitive shell pairs kept                  ...      3993
          la=0 lb=0:    740 shell pairs
          la=1 lb=0:    870 shell pairs
          la=1 lb=1:    258 shell pairs
          la=2 lb=0:    508 shell pairs
          la=2 lb=1:    286 shell pairs
          la=2 lb=2:     88 shell pairs
          la=3 lb=0:    112 shell pairs
          la=3 lb=1:     64 shell pairs
          la=3 lb=2:     37 shell pairs
          la=3 lb=3:      6 shell pairs

Calculating one electron integrals          ... done (  0.0 sec)
Calculating Nuclear repulsion               ... done (  0.0 sec) ENN=     92.689729684337 Eh

SHARK setup successfully completed in   0.3 seconds

Maximum memory used throughout the entire GTOINT-calculation: 39.0 MB

Diagonalization of the overlap matrix:
Smallest eigenvalue                        ... 7.702e-05
Time for diagonalization                   ...    0.010 sec
Threshold for overlap eigenvalues          ... 1.000e-08
Number of eigenvalues below threshold      ... 0
Time for construction of square roots      ...    0.005 sec
Total time needed                          ...    0.015 sec

-------------------
DFT GRID GENERATION
-------------------

General Integration Accuracy     IntAcc      ... 4.388
Radial Grid Type                 RadialGrid  ... OptM3 with GC (2021)
Angular Grid (max. ang.)         AngularGrid ... 4 (Lebedev-302)
Angular grid pruning method      GridPruning ... 4 (adaptive)
Weight generation scheme         WeightScheme... Becke
Basis function cutoff            BFCut       ... 1.0000e-11
Integration weight cutoff        WCut        ... 1.0000e-14
Angular grids for H and He will be reduced by one unit
Partially contracted basis set               ... off
Rotationally invariant grid construction     ... off

Total number of grid points                  ...    24077
Total number of batches                      ...      379
Average number of points per batch           ...       63
Average number of grid points per atom       ...     6019
Time for grid setup =    0.253 sec

--------------
SCF ITERATIONS
--------------
ITER       Energy         Delta-E        Max-DP      RMS-DP      [F,P]     Damp
               ***  Starting incremental Fock matrix formation  ***
  0   -598.4623891326   0.000000000000 0.00276062  0.00006664  0.0151151 0.7000
  1   -598.4635530844  -0.001163951803 0.00277248  0.00006218  0.0105263 0.7000
                               ***Turning on DIIS***
  2   -598.4644687723  -0.000915687861 0.00808053  0.00016526  0.0073384 0.0000
  3   -598.4668466198  -0.002377847492 0.00213093  0.00003049  0.0018119 0.0000
  4   -598.4669088562  -0.000062236450 0.00152043  0.00002256  0.0007630 0.0000
  5   -598.4669247412  -0.000015884912 0.00041494  0.00000679  0.0004364 0.0000
  6   -598.4669274932  -0.000002752029 0.00013886  0.00000267  0.0001816 0.0000
  7   -598.4669278888  -0.000000395631 0.00002806  0.00000086  0.0001102 0.0000
  8   -598.4669279422  -0.000000053354 0.00002293  0.00000045  0.0000542 0.0000
  9   -598.4669279561  -0.000000013902 0.00001193  0.00000021  0.0000140 0.0000
 10   -598.4669279588  -0.000000002722 0.00000320  0.00000006  0.0000034 0.0000
 11   -598.4669279587   0.000000000068 0.00000151  0.00000003  0.0000012 0.0000
                 **** Energy Check signals convergence ****

               *****************************************************
               *                     SUCCESS                       *
               *           SCF CONVERGED AFTER  12 CYCLES          *
               *****************************************************

Total Energy       :         -598.46692796 Eh          -16285.11303 eV
  Last Energy change         ...   -7.2419e-11  Tolerance :   1.0000e-08
  Last MAX-Density change    ...    9.9497e-07  Tolerance :   1.0000e-07
             **** THE GBW FILE WAS UPDATED (C-Cl-F-H_radical_opt.gbw) ****
             **** DENSITY C-Cl-F-H_radical_opt.scfp WAS UPDATED ****
             **** ENERGY FILE WAS UPDATED (C-Cl-F-H_radical_opt.en.tmp) ****
----------------------
UHF SPIN CONTAMINATION
----------------------

Warning: in a DFT calculation there is little theoretical justification to 
         calculate <S**2> as in Hartree-Fock theory. We will do it anyways
         but you should keep in mind that the values have only limited relevance

Expectation value of <S**2>     :     0.754000
Ideal value S*(S+1) for S=0.5   :     0.750000
Deviation                       :     0.004000

             **** THE GBW FILE WAS UPDATED (C-Cl-F-H_radical_opt.gbw) ****
             **** DENSITY C-Cl-F-H_radical_opt.scfp WAS UPDATED ****
Total SCF time: 0 days 0 hours 0 min 44 sec 

Maximum memory used throughout the entire SCF-calculation: 256.4 MB

-------------------------   --------------------
FINAL SINGLE POINT ENERGY      -598.466927958796
-------------------------   --------------------

------------------------------------------------------------------------------
                         ORCA SCF GRADIENT CALCULATION
------------------------------------------------------------------------------

Gradient of the Kohn-Sham DFT energy:
Kohn-Sham wavefunction type      ... UKS
Hartree-Fock exchange scaling    ...    0.250
Number of operators              ...    2
Number of atoms                  ...    4
Basis set dimensions             ...  180
Integral neglect threshold       ... 2.5e-11
Integral primitive cutoff        ... 2.5e-12
SHARK Integral package           ... ON

Nuc. rep. gradient       (SHARK) ... done (  0.0 sec)
HCore & Overlap gradient (SHARK) ... done (  0.1 sec)
Two-Electron gradient    (SHARK) ... done ( 13.6 sec)
Exchange-correlation gradient    ... done

------------------
CARTESIAN GRADIENT
------------------

   1   C   :   -0.005435702    0.014970212    0.022981126
   2   Cl  :    0.012969501   -0.002757152   -0.006881405
   3   F   :   -0.008492744   -0.012560246   -0.009430935
   4   H   :    0.000958945    0.000347186   -0.006668787

Difference to translation invariance:
           :    0.0000000000   -0.0000000000   -0.0000000000

Difference to rotation invariance:
           :   -0.0000209618    0.0000022660    0.0000711770

Norm of the cartesian gradient     ...    0.0370039411
RMS gradient                       ...    0.0106821177
MAX gradient                       ...    0.0229811264

-------
TIMINGS
-------

Total SCF gradient time            ...       15.016 sec

One electron gradient       ....       0.057 sec  (  0.4%)
Two electron gradient       ....      13.626 sec  ( 90.7%)
XC gradient                 ....       1.210 sec  (  8.1%)

Maximum memory used throughout the entire SCFGRAD-calculation: 55.6 MB
------------------------------------------------------------------------------
                         ORCA GEOMETRY RELAXATION STEP
------------------------------------------------------------------------------

Reading the OPT-File                    .... done
Getting information on internals        .... done
Copying old internal coords+grads       .... done
Making the new internal coordinates     .... (new redundants).... done
Validating the new internal coordinates .... (new redundants).... done
Calculating the B-matrix                .... done
Calculating the G,G- and P matrices     .... done
Transforming gradient to internals      .... done
Projecting the internal gradient        .... done
Number of atoms                         ....   4
Number of internal coordinates          ....   7
Current Energy                          ....  -598.466927959 Eh
Current gradient norm                   ....     0.037003941 Eh/bohr
Maximum allowed component of the step   ....  0.300
Current trust radius                    ....  0.300
Updating the Hessian (BFGS)             .... done
Forming the augmented Hessian           .... done
Diagonalizing the augmented Hessian     .... done
Last element of RFO vector              ....  0.980653042
Lowest eigenvalues of augmented Hessian:
 -0.004392379  0.088651055  0.287515229  0.333204315  0.344658815
Length of the computed step             ....  0.199615915
The final length of the internal step   ....  0.199615915
Converting the step to cartesian space:
 Initial RMS(Int)=    0.0754477242
Transforming coordinates:
 Iter   0:  RMS(Cart)=    0.0395313062 RMS(Int)=    0.0752798440
 Iter   1:  RMS(Cart)=    0.0025043405 RMS(Int)=    0.0034771449
 Iter   2:  RMS(Cart)=    0.0001649087 RMS(Int)=    0.0002433255
 Iter   3:  RMS(Cart)=    0.0000177204 RMS(Int)=    0.0000239667
 Iter   4:  RMS(Cart)=    0.0000009348 RMS(Int)=    0.0000015113
 Iter   5:  RMS(Cart)=    0.0000001089 RMS(Int)=    0.0000001447
 Iter   6:  RMS(Cart)=    0.0000000061 RMS(Int)=    0.0000000098
done
Storing new coordinates                 .... done

                                .--------------------.
          ----------------------|Geometry convergence|-------------------------
          Item                value                   Tolerance       Converged
          ---------------------------------------------------------------------
          Energy change      -0.0078246787            0.0000050000      NO
          RMS gradient        0.0098575807            0.0001000000      NO
          MAX gradient        0.0171382106            0.0003000000      NO
          RMS step            0.0754477242            0.0020000000      NO
          MAX step            0.1453248007            0.0040000000      NO
          ........................................................
          Max(Bonds)      0.0408      Max(Angles)    3.51
          Max(Dihed)        0.00      Max(Improp)    8.33
          ---------------------------------------------------------------------

The optimization has not yet converged - more geometry cycles are needed


    ---------------------------------------------------------------------------
                         Redundant Internal Coordinates
                            (Angstroem and degrees)

        Definition                    Value    dE/dq     Step     New-Value
    ----------------------------------------------------------------------------
     1. B(Cl  1,C   0)                1.7422  0.014362 -0.0408    1.7014   
     2. B(F   2,C   0)                1.3478  0.017138 -0.0311    1.3166   
     3. B(H   3,C   0)                1.0909  0.002525 -0.0075    1.0834   
     4. A(Cl  1,C   0,H   3)          112.58 -0.003003    3.51    116.09   
     5. A(F   2,C   0,H   3)          111.84 -0.006129    3.04    114.88   
     6. A(Cl  1,C   0,F   2)          112.11 -0.002963    2.89    115.00   
     7. I(Cl  1,H   3,F   2,C   0)    -47.28 -0.010884    8.33    -38.95   
    ----------------------------------------------------------------------------

         *************************************************************
         *                GEOMETRY OPTIMIZATION CYCLE   3            *
         *************************************************************
---------------------------------
CARTESIAN COORDINATES (ANGSTROEM)
---------------------------------
  C     -0.123894    0.086873    0.223859
  Cl     1.525396   -0.230710   -0.047633
  F     -0.927687   -0.913738   -0.069716
  H     -0.473815    1.057575   -0.106510

----------------------------
CARTESIAN COORDINATES (A.U.)
----------------------------
  NO LB      ZA    FRAG     MASS         X           Y           Z
   0 C     6.0000    0    12.011   -0.234125    0.164167    0.423032
   1 Cl   17.0000    0    35.453    2.882580   -0.435979   -0.090013
   2 F     9.0000    0    18.998   -1.753074   -1.726715   -0.131744
   3 H     1.0000    0     1.008   -0.895381    1.998527   -0.201275

--------------------------------
INTERNAL COORDINATES (ANGSTROEM)
--------------------------------
 C      0   0   0     0.000000000000     0.00000000     0.00000000
 Cl     1   0   0     1.701388380211     0.00000000     0.00000000
 F      1   2   0     1.316621702454   114.47917187     0.00000000
 H      1   2   3     1.083443751275   115.57308224   223.59090869

---------------------------
INTERNAL COORDINATES (A.U.)
---------------------------
 C      0   0   0     0.000000000000     0.00000000     0.00000000
 Cl     1   0   0     3.215158086034     0.00000000     0.00000000
 F      1   2   0     2.488054439615   114.47917187     0.00000000
 H      1   2   3     2.047411971417   115.57308224   223.59090869

------------------------------------------------------------------------------
                   ___                                                        
                  /   \      - P O W E R E D   B Y -                         
                 /     \                                                     
                 |  |  |   _    _      __       _____    __    __             
                 |  |  |  | |  | |    /  \     |  _  \  |  |  /  |          
                  \  \/   | |  | |   /    \    | | | |  |  | /  /          
                 / \  \   | |__| |  /  /\  \   | |_| |  |  |/  /          
                |  |  |   |  __  | /  /__\  \  |    /   |      \           
                |  |  |   | |  | | |   __   |  |    \   |  |\   \          
                \     /   | |  | | |  |  |  |  | |\  \  |  | \   \       
                 \___/    |_|  |_| |__|  |__|  |_| \__\ |__|  \__/        
                                                                              
                      - O R C A' S   B I G   F R I E N D -                    
                                      &                                       
                       - I N T E G R A L  F E E D E R -                       
                                                                              
 v1 FN, 2020, v2 2021                                                         
------------------------------------------------------------------------------


Reading SHARK input file C-Cl-F-H_radical_opt.SHARKINP.tmp ... ok
----------------------
SHARK INTEGRAL PACKAGE
----------------------

Number of atoms                             ...      4
Number of basis functions                   ...    199
Number of shells                            ...     83
Maximum angular momentum                    ...      3
Integral batch strategy                     ... SHARK/LIBINT Hybrid
RI-J (if used) integral strategy            ... SPLIT-RIJ (Revised 2003 algorithm where possible)
Printlevel                                  ...      1
Contraction scheme used                     ... PARTIAL GENERAL contraction
Coulomb Range Separation                    ... NOT USED
Exchange Range Separation                   ... NOT USED
Finite Nucleus Model                        ... NOT USED
Auxiliary Coulomb fitting basis             ... NOT available
Auxiliary J/K fitting basis                 ... NOT available
Auxiliary Correlation fitting basis         ... NOT available
Auxiliary 'external' fitting basis          ... NOT available
Integral threshold                          ...     2.500000e-11
Primitive cut-off                           ...     2.500000e-12
Primitive pair pre-selection threshold      ...     2.500000e-12

Calculating pre-screening integrals         ... done (  0.0 sec) Dimension = 83
Calculating pre-screening integrals (ORCA)  ... done (  0.1 sec) Dimension = 70
Organizing shell pair data                  ... done (  0.0 sec)
Shell pair information
Total number of shell pairs                 ...      3486
Shell pairs after pre-screening             ...      2972
Total number of primitive shell pairs       ...      5205
Primitive shell pairs kept                  ...      3996
          la=0 lb=0:    741 shell pairs
          la=1 lb=0:    871 shell pairs
          la=1 lb=1:    258 shell pairs
          la=2 lb=0:    509 shell pairs
          la=2 lb=1:    286 shell pairs
          la=2 lb=2:     88 shell pairs
          la=3 lb=0:    112 shell pairs
          la=3 lb=1:     64 shell pairs
          la=3 lb=2:     37 shell pairs
          la=3 lb=3:      6 shell pairs

Calculating one electron integrals          ... done (  0.0 sec)
Calculating Nuclear repulsion               ... done (  0.0 sec) ENN=     94.288585519205 Eh

SHARK setup successfully completed in   0.3 seconds

Maximum memory used throughout the entire GTOINT-calculation: 39.0 MB

Diagonalization of the overlap matrix:
Smallest eigenvalue                        ... 7.700e-05
Time for diagonalization                   ...    0.010 sec
Threshold for overlap eigenvalues          ... 1.000e-08
Number of eigenvalues below threshold      ... 0
Time for construction of square roots      ...    0.005 sec
Total time needed                          ...    0.015 sec

-------------------
DFT GRID GENERATION
-------------------

General Integration Accuracy     IntAcc      ... 4.388
Radial Grid Type                 RadialGrid  ... OptM3 with GC (2021)
[...]
Forming RHS of the CP-SCF equations         ... 
Calc. nucleus orbit integrals (SHARK)       ... done

------------------------------------------------------------------------------
                           ORCA CP-SCF CALCULATION
------------------------------------------------------------------------------

Input orbitals are from        ... C-Cl-F-H_radical_EPR.gbw
Input Perturbation             ... C-Cl-F-H_radical_EPR.pin.tmp
Wavefunction output            ... C-Cl-F-H_radical_EPR.pout.tmp
Perturbation mode              ... Imaginary perturbation
Solver                         ... POPLE
Max. number of iterations      ... 64
Convergence tolerance          ... 1.000e-03
Integral handling              ... Direct
DFT GridXC                     ... 1
Number of perturbations        ... 3
Number of operators            ... 2
Orbital ranges used for CP-SCF:
 Operator 0:  Orbitals   0... 16  to  17...179
 Operator 1:  Orbitals   0... 15  to  16...179
Variables per perturbation     ... 5395
DFT calculation                         ... on
XC functional terms                     ... off
Hybrid DFT                              ... on
   Exchange mixing (SCF)                ...  0.250
   Exchange mixing (CP-SCF)             ...  0.250
   GGA exch. scaling(SCF)               ...  0.750
   GGA exch. scaling (CP-SCF)           ...  0.750
   GGA corr. scaling (SCF)              ...  1.000
   GGA corr. scaling (CP-SCF)           ...  1.000

CP-SCF GRID
-----------

General Integration Accuracy     IntAcc      ... 3.467
Radial Grid Type                 RadialGrid  ... OptM3 with GC (2021)
Angular Grid (max. ang.)         AngularGrid ... 1 (Lebedev-50)
Angular grid pruning method      GridPruning ... 4 (adaptive)
Weight generation scheme         WeightScheme... Becke
Basis function cutoff            BFCut       ... 1.0000e-11
Integration weight cutoff        WCut        ... 1.0000e-14
Angular grids for H and He will be reduced by one unit
Partially contracted basis set               ... off
Rotationally invariant grid construction     ... off

Total number of grid points                  ...     3782
Total number of batches                      ...       61
Average number of points per batch           ...       62
Average number of grid points per atom       ...      946

Memory available               ... 888.6 MB
Memory needed per perturbation ...   6.3 MB
Perturbations treated per batch... 3
Number of batches              ... 1
     CP-SCF ITERATION   0:   1.3236e+00 (   7.9 sec   0/  3 done)
     CP-SCF ITERATION   1:   6.5207e-02 (   7.8 sec   0/  3 done)
     CP-SCF ITERATION   2:   6.1494e-03 (   7.7 sec   0/  3 done)
     CP-SCF ITERATION   3:   5.7628e-04 (   7.9 sec   3/  3 done)
                    *** THE CP-SCF HAS CONVERGED ***

Forming final perturbed densities           ... done
Transforming perturbed density to AO basis  ... done

 Raw HFC matrix (all values in MHz): 
 -----------------------------------
               233.5644              -0.7082              -5.7887
                -0.6795             233.3677              -6.6043
                -5.7957              -6.4922             453.9393

 A(FC)         306.5768             306.5768             306.5768
 A(SD)         -75.0639             -72.6607             147.7245
 A(ORB+DIA)      0.9074               0.2507              -0.0171    A(PC) =   0.3803
 A(ORB)          0.9056               0.2492              -0.0170    A(PC) =   0.3793
 A(DIA)          0.0018               0.0015              -0.0001    A(PC) =   0.0010
             ----------           ----------           ----------
 A(Tot)        232.4203             234.1668             454.2843    A(iso)=  306.9571
 Orientation: 
  X           0.6563662            0.7539905            0.0261101
  Y           0.7534018           -0.6568853            0.0297883
  Z           0.0396114            0.0001194           -0.9992152

Notes:  (1) The A matrix conforms to the "SAI" spin Hamiltonian convention.
        (2) Tensor is right-handed.

 -----------------------------------------------------------
 Nucleus   3H : A:ISTP=    1 I=  0.5 P=533.5514 MHz/au**3
                Q:ISTP=    2 I=  1.0 Q=  0.0029 barn     
 -----------------------------------------------------------
 Solving for nuclear perturbation:
Forming RHS of the CP-SCF equations         ... 
Calc. nucleus orbit integrals (SHARK)       ... done

------------------------------------------------------------------------------
                           ORCA CP-SCF CALCULATION
------------------------------------------------------------------------------

Input orbitals are from        ... C-Cl-F-H_radical_EPR.gbw
Input Perturbation             ... C-Cl-F-H_radical_EPR.pin.tmp
Wavefunction output            ... C-Cl-F-H_radical_EPR.pout.tmp
Perturbation mode              ... Imaginary perturbation
Solver                         ... POPLE
Max. number of iterations      ... 64
Convergence tolerance          ... 1.000e-03
Integral handling              ... Direct
DFT GridXC                     ... 1
Number of perturbations        ... 3
Number of operators            ... 2
Orbital ranges used for CP-SCF:
 Operator 0:  Orbitals   0... 16  to  17...179
 Operator 1:  Orbitals   0... 15  to  16...179
Variables per perturbation     ... 5395
DFT calculation                         ... on
XC functional terms                     ... off
Hybrid DFT                              ... on
   Exchange mixing (SCF)                ...  0.250
   Exchange mixing (CP-SCF)             ...  0.250
   GGA exch. scaling(SCF)               ...  0.750
   GGA exch. scaling (CP-SCF)           ...  0.750
   GGA corr. scaling (SCF)              ...  1.000
   GGA corr. scaling (CP-SCF)           ...  1.000

CP-SCF GRID
-----------

General Integration Accuracy     IntAcc      ... 3.467
Radial Grid Type                 RadialGrid  ... OptM3 with GC (2021)
Angular Grid (max. ang.)         AngularGrid ... 1 (Lebedev-50)
Angular grid pruning method      GridPruning ... 4 (adaptive)
Weight generation scheme         WeightScheme... Becke
Basis function cutoff            BFCut       ... 1.0000e-11
Integration weight cutoff        WCut        ... 1.0000e-14
Angular grids for H and He will be reduced by one unit
Partially contracted basis set               ... off
Rotationally invariant grid construction     ... off

Total number of grid points                  ...     3782
Total number of batches                      ...       61
Average number of points per batch           ...       62
Average number of grid points per atom       ...      946

Memory available               ... 888.4 MB
Memory needed per perturbation ...   6.3 MB
Perturbations treated per batch... 3
Number of batches              ... 1
     CP-SCF ITERATION   0:   7.8357e-02 (   7.6 sec   0/  3 done)
     CP-SCF ITERATION   1:   3.8361e-03 (   7.9 sec   0/  3 done)
     CP-SCF ITERATION   2:   3.7455e-04 (   7.8 sec   3/  3 done)
                    *** THE CP-SCF HAS CONVERGED ***

Forming final perturbed densities           ... done
Transforming perturbed density to AO basis  ... done

 Raw HFC matrix (all values in MHz): 
 -----------------------------------
               -30.4680             -23.2153               1.3101
               -23.3382              19.6965              -9.6784
                 1.3107              -9.5756              -6.6340

 A(FC)          -5.8869              -5.8869              -5.8869
 A(SD)          -2.9411              36.9089             -33.9679
 A(ORB+DIA)     -0.0007               0.1714               0.0845    A(PC) =   0.0850
 A(ORB)          0.0019               0.1661               0.0842    A(PC) =   0.0841
 A(DIA)         -0.0027               0.0054               0.0002    A(PC) =   0.0010
             ----------           ----------           ----------
 A(Tot)         -8.8287              31.1935             -39.7703    A(iso)=   -5.8018
 Orientation: 
  X          -0.1562179           -0.3461654           -0.9250759
  Y           0.1999778            0.9060932           -0.3728324
  Z           0.9672667           -0.2432378           -0.0723225

Notes:  (1) The A matrix conforms to the "SAI" spin Hamiltonian convention.
        (2) Tensor is right-handed.

 -----------------------------------------------------------
 Nucleus   2F : A:ISTP=   19 I=  0.5 P=502.2248 MHz/au**3
                Q:ISTP=   19 I=  0.5 Q=  0.0000 barn     
 -----------------------------------------------------------
 Solving for nuclear perturbation:
Forming RHS of the CP-SCF equations         ... 
Calc. nucleus orbit integrals (SHARK)       ... done

------------------------------------------------------------------------------
                           ORCA CP-SCF CALCULATION
------------------------------------------------------------------------------

Input orbitals are from        ... C-Cl-F-H_radical_EPR.gbw
Input Perturbation             ... C-Cl-F-H_radical_EPR.pin.tmp
Wavefunction output            ... C-Cl-F-H_radical_EPR.pout.tmp
Perturbation mode              ... Imaginary perturbation
Solver                         ... POPLE
Max. number of iterations      ... 64
Convergence tolerance          ... 1.000e-03
Integral handling              ... Direct
DFT GridXC                     ... 1
Number of perturbations        ... 3
Number of operators            ... 2
Orbital ranges used for CP-SCF:
 Operator 0:  Orbitals   0... 16  to  17...179
 Operator 1:  Orbitals   0... 15  to  16...179
Variables per perturbation     ... 5395
DFT calculation                         ... on
XC functional terms                     ... off
Hybrid DFT                              ... on
   Exchange mixing (SCF)                ...  0.250
   Exchange mixing (CP-SCF)             ...  0.250
   GGA exch. scaling(SCF)               ...  0.750
   GGA exch. scaling (CP-SCF)           ...  0.750
   GGA corr. scaling (SCF)              ...  1.000
   GGA corr. scaling (CP-SCF)           ...  1.000

CP-SCF GRID
-----------

General Integration Accuracy     IntAcc      ... 3.467
Radial Grid Type                 RadialGrid  ... OptM3 with GC (2021)
Angular Grid (max. ang.)         AngularGrid ... 1 (Lebedev-50)
Angular grid pruning method      GridPruning ... 4 (adaptive)
Weight generation scheme         WeightScheme... Becke
Basis function cutoff            BFCut       ... 1.0000e-11
Integration weight cutoff        WCut        ... 1.0000e-14
Angular grids for H and He will be reduced by one unit
Partially contracted basis set               ... off
Rotationally invariant grid construction     ... off

Total number of grid points                  ...     3782
Total number of batches                      ...       61
Average number of points per batch           ...       62
Average number of grid points per atom       ...      946

Memory available               ... 888.4 MB
Memory needed per perturbation ...   6.3 MB
Perturbations treated per batch... 3
Number of batches              ... 1
     CP-SCF ITERATION   0:   2.9717e+00 (   7.9 sec   0/  3 done)
     CP-SCF ITERATION   1:   1.4654e-01 (   7.8 sec   0/  3 done)
     CP-SCF ITERATION   2:   1.3821e-02 (   7.6 sec   0/  3 done)
     CP-SCF ITERATION   3:   1.5127e-03 (   7.9 sec   2/  3 done)
     CP-SCF ITERATION   4:   1.6029e-04 (   4.9 sec   3/  3 done)
                    *** THE CP-SCF HAS CONVERGED ***

Forming final perturbed densities           ... done
Transforming perturbed density to AO basis  ... done

 Raw HFC matrix (all values in MHz): 
 -----------------------------------
               -17.3875             -17.9444              11.7428
               -16.2530             -18.1918              11.7017
                12.1056              11.4714             616.3658

 A(FC)         191.3099             191.3099             191.3099
 A(SD)        -195.2155            -230.4867             425.7022
 A(ORB+DIA)      3.2188               3.8602              -0.2222    A(PC) =   2.2856
 A(ORB)          3.2178               3.8567              -0.2216    A(PC) =   2.2843
 A(DIA)          0.0011               0.0035              -0.0006    A(PC) =   0.0013
             ----------           ----------           ----------
 A(Tot)         -0.6868             -35.3166             616.7899    A(iso)=  193.5955
 Orientation: 
  X           0.7128487            0.7010868            0.0180024
  Y          -0.7013179            0.7126223            0.0179643
  Z          -0.0002344           -0.0254312            0.9996765

Notes:  (1) The A matrix conforms to the "SAI" spin Hamiltonian convention.
        (2) Tensor is right-handed.

 -----------------------------------------------------------
 Nucleus   1Cl: A:ISTP=   35 I=  1.5 P= 52.3376 MHz/au**3
                Q:ISTP=   35 I=  1.5 Q= -0.0817 barn     
 -----------------------------------------------------------
 Solving for nuclear perturbation:
Forming RHS of the CP-SCF equations         ... 
Calc. nucleus orbit integrals (SHARK)       ... done

------------------------------------------------------------------------------
                           ORCA CP-SCF CALCULATION
------------------------------------------------------------------------------

Input orbitals are from        ... C-Cl-F-H_radical_EPR.gbw
Input Perturbation             ... C-Cl-F-H_radical_EPR.pin.tmp
Wavefunction output            ... C-Cl-F-H_radical_EPR.pout.tmp
Perturbation mode              ... Imaginary perturbation
Solver                         ... POPLE
Max. number of iterations      ... 64
Convergence tolerance          ... 1.000e-03
Integral handling              ... Direct
DFT GridXC                     ... 1
Number of perturbations        ... 3
Number of operators            ... 2
Orbital ranges used for CP-SCF:
 Operator 0:  Orbitals   0... 16  to  17...179
 Operator 1:  Orbitals   0... 15  to  16...179
Variables per perturbation     ... 5395
DFT calculation                         ... on
XC functional terms                     ... off
Hybrid DFT                              ... on
   Exchange mixing (SCF)                ...  0.250
   Exchange mixing (CP-SCF)             ...  0.250
   GGA exch. scaling(SCF)               ...  0.750
   GGA exch. scaling (CP-SCF)           ...  0.750
   GGA corr. scaling (SCF)              ...  1.000
   GGA corr. scaling (CP-SCF)           ...  1.000

CP-SCF GRID
-----------

General Integration Accuracy     IntAcc      ... 3.467
Radial Grid Type                 RadialGrid  ... OptM3 with GC (2021)
Angular Grid (max. ang.)         AngularGrid ... 1 (Lebedev-50)
Angular grid pruning method      GridPruning ... 4 (adaptive)
Weight generation scheme         WeightScheme... Becke
Basis function cutoff            BFCut       ... 1.0000e-11
Integration weight cutoff        WCut        ... 1.0000e-14
Angular grids for H and He will be reduced by one unit
Partially contracted basis set               ... off
Rotationally invariant grid construction     ... off

Total number of grid points                  ...     3782
Total number of batches                      ...       61
Average number of points per batch           ...       62
Average number of grid points per atom       ...      946

Memory available               ... 888.4 MB
Memory needed per perturbation ...   6.3 MB
Perturbations treated per batch... 3
Number of batches              ... 1
     CP-SCF ITERATION   0:   5.1501e+00 (   8.0 sec   0/  3 done)
     CP-SCF ITERATION   1:   3.6431e-01 (   7.6 sec   0/  3 done)
     CP-SCF ITERATION   2:   3.7101e-02 (   7.6 sec   0/  3 done)
     CP-SCF ITERATION   3:   3.7856e-03 (   7.7 sec   0/  3 done)
     CP-SCF ITERATION   4:   3.2487e-04 (   7.6 sec   3/  3 done)
                    *** THE CP-SCF HAS CONVERGED ***

Forming final perturbed densities           ... done
Transforming perturbed density to AO basis  ... done

 Raw HFC matrix (all values in MHz): 
 -----------------------------------
               -10.9815               1.9784             -16.5405
                 1.8988              -5.7829              -1.8108
               -16.5551              -1.8118              59.5805

 A(FC)          14.3356              14.3356              14.3356
 A(SD)         -19.4593             -29.6755              49.1348
 A(ORB+DIA)     -0.4813               0.4230              -0.1325    A(PC) =  -0.0636
 A(ORB)         -0.4813               0.4229              -0.1325    A(PC) =  -0.0636
 A(DIA)          0.0000               0.0002              -0.0000    A(PC) =   0.0001
             ----------           ----------           ----------
 A(Tot)         -5.6049             -14.9168              63.3379    A(iso)=   14.2721
 Orientation: 
  X          -0.1546136            0.9636358           -0.2179465
  Y          -0.9857448           -0.1652782           -0.0314688
  Z          -0.0663463            0.2099741            0.9754533

Notes:  (1) The A matrix conforms to the "SAI" spin Hamiltonian convention.
        (2) Tensor is right-handed.


--------------------------------------------------------------------------------
----------------------------------------------------------------------------
                           ORCA EULER ANGLE PROGRAM
----------------------------------------------------------------------------

Only g-tensor available        -->  using g-tensor as reference tensor

Reference tensor               ...  g

g-tensor ordering              ...  |g_min> --> |gx>
                                    |g_mid> --> |gy>
                                    |g_max> --> |gz>

A- and EFG-tensor ordering     ...  the axes |Ax>, |Qx>, |Ay>, etc. are assigned
                                    such that the Euler rotation is minimal. You
                                    can find the respective eigenvalues as Ax,
                                    EFGx, Ay, etc. in the tables below.
                                    The relation of |Ax>, |Ay>,  etc. to Amin, Amid, etc.
                                    (as printed in the ORCA EPR/NMR CALCULATION Output)
                                    is obtained in the detailed printout.

Euler rotation around          ...  z - y - z
   First rotation              -->  by alpha around z
   Second rotation             -->  by beta around y'
   Third rotation              -->  by gamma around z''
   Positive / Negative angle   -->  clockwise / counterclockwise rotation

Plot EFG-tensors                    (-)
Plot HFC-tensors                    (-)
Detailed Printout                   (-)

-------------------------------------------------------------------------
          Euler rotation of hyperfine tensor to g-tensor
-------------------------------------------------------------------------

-------------------------------------------------------------------
 Atom  |   Alpha    Beta    Gamma   |   Ax       Ay       Az 
       |          [degrees]         |           [MHz]         
-------------------------------------------------------------------
  0C     -112.2      9.7    111.5     454.28   234.17   232.42
  3H     -108.4     35.9     91.0      -8.83    31.19   -39.77
  2F     -120.6     14.5    120.0     616.79    -0.69   -35.32
  1Cl      84.0     23.1    -94.2      63.34   -14.92    -5.60
-------------------------------------------------------------------


Maximum memory used throughout the entire EPRNMR-calculation: 151.1 MB

Timings for individual modules:

Sum of individual times         ...      272.280 sec (=   4.538 min)
GTO integral calculation        ...        0.335 sec (=   0.006 min)   0.1 %
Spin-Orbit-Coupling Matrices    ...       44.752 sec (=   0.746 min)  16.4 %
SCF iterations                  ...        6.836 sec (=   0.114 min)   2.5 %
EPR/NMR calculation             ...      220.357 sec (=   3.673 min)  80.9 %



                             ****ORCA TERMINATED NORMALLY****
TOTAL RUN TIME: 0 days 0 hours 10 minutes 56 seconds 387 msec

slurmID:    30883858
totalRuntime[s]:    656.481825089
