
                                 *****************
                                 * O   R   C   A *
                                 *****************

                                            #,                                       
                                            ###                                      
                                            ####                                     
                                            #####                                    
                                            ######                                   
                                           ########,                                 
                                     ,,################,,,,,                         
                               ,,#################################,,                 
                          ,,##########################################,,             
                       ,#########################################, ''#####,          
                    ,#############################################,,   '####,        
                  ,##################################################,,,,####,       
                ,###########''''           ''''###############################       
              ,#####''   ,,,,##########,,,,          '''####'''          '####       
            ,##' ,,,,###########################,,,                        '##       
           ' ,,###''''                  '''############,,,                           
         ,,##''                                '''############,,,,        ,,,,,,###''
      ,#''                                            '''#######################'''  
     '                                                          ''''####''''         
             ,#######,   #######,   ,#######,      ##                                
            ,#'     '#,  ##    ##  ,#'     '#,    #''#        ######   ,####,        
            ##       ##  ##   ,#'  ##            #'  '#       #        #'  '#        
            ##       ##  #######   ##           ,######,      #####,   #    #        
            '#,     ,#'  ##    ##  '#,     ,#' ,#      #,         ##   #,  ,#        
             '#######'   ##     ##  '#######'  #'      '#     #####' # '####'        



                  #######################################################
                  #                        -***-                        #
                  #          Department of theory and spectroscopy      #
                  #    Directorship and core code : Frank Neese         #
                  #        Max Planck Institute fuer Kohlenforschung    #
                  #                Kaiser Wilhelm Platz 1               #
                  #                 D-45470 Muelheim/Ruhr               #
                  #                      Germany                        #
                  #                                                     #
                  #                  All rights reserved                #
                  #                        -***-                        #
                  #######################################################


                         Program Version 5.0.4 -  RELEASE  -


 With contributions from (in alphabetic order):
   Daniel Aravena         : Magnetic Suceptibility
   Michael Atanasov       : Ab Initio Ligand Field Theory (pilot matlab implementation)
   Alexander A. Auer      : GIAO ZORA, VPT2 properties, NMR spectrum
   Ute Becker             : Parallelization
   Giovanni Bistoni       : ED, misc. LED, open-shell LED, HFLD
   Martin Brehm           : Molecular dynamics
   Dmytro Bykov           : SCF Hessian
   Vijay G. Chilkuri      : MRCI spin determinant printing, contributions to CSF-ICE
   Dipayan Datta          : RHF DLPNO-CCSD density
   Achintya Kumar Dutta   : EOM-CC, STEOM-CC
   Dmitry Ganyushin       : Spin-Orbit,Spin-Spin,Magnetic field MRCI
   Miquel Garcia          : C-PCM and meta-GGA Hessian, CC/C-PCM, Gaussian charge scheme
   Yang Guo               : DLPNO-NEVPT2, F12-NEVPT2, CIM, IAO-localization
   Andreas Hansen         : Spin unrestricted coupled pair/coupled cluster methods
   Benjamin Helmich-Paris : MC-RPA, TRAH-SCF, COSX integrals
   Lee Huntington         : MR-EOM, pCC
   Robert Izsak           : Overlap fitted RIJCOSX, COSX-SCS-MP3, EOM
   Marcus Kettner         : VPT2
   Christian Kollmar      : KDIIS, OOCD, Brueckner-CCSD(T), CCSD density, CASPT2, CASPT2-K
   Simone Kossmann        : Meta GGA functionals, TD-DFT gradient, OOMP2, MP2 Hessian
   Martin Krupicka        : Initial AUTO-CI
   Lucas Lang             : DCDCAS
   Marvin Lechner         : AUTO-CI (C++ implementation), FIC-MRCC
   Dagmar Lenk            : GEPOL surface, SMD
   Dimitrios Liakos       : Extrapolation schemes; Compound Job, initial MDCI parallelization
   Dimitrios Manganas     : Further ROCIS development; embedding schemes
   Dimitrios Pantazis     : SARC Basis sets
   Anastasios Papadopoulos: AUTO-CI, single reference methods and gradients
   Taras Petrenko         : DFT Hessian,TD-DFT gradient, ASA, ECA, R-Raman, ABS, FL, XAS/XES, NRVS
   Peter Pinski           : DLPNO-MP2, DLPNO-MP2 Gradient
   Christoph Reimann      : Effective Core Potentials
   Marius Retegan         : Local ZFS, SOC
   Christoph Riplinger    : Optimizer, TS searches, QM/MM, DLPNO-CCSD(T), (RO)-DLPNO pert. Triples
   Tobias Risthaus        : Range-separated hybrids, TD-DFT gradient, RPA, STAB
   Michael Roemelt        : Original ROCIS implementation
   Masaaki Saitow         : Open-shell DLPNO-CCSD energy and density
   Barbara Sandhoefer     : DKH picture change effects
   Avijit Sen             : IP-ROCIS
   Kantharuban Sivalingam : CASSCF convergence, NEVPT2, FIC-MRCI
   Bernardo de Souza      : ESD, SOC TD-DFT
   Georgi Stoychev        : AutoAux, RI-MP2 NMR, DLPNO-MP2 response
   Willem Van den Heuvel  : Paramagnetic NMR
   Boris Wezisla          : Elementary symmetry handling
   Frank Wennmohs         : Technical directorship


 We gratefully acknowledge several colleagues who have allowed us to
 interface, adapt or use parts of their codes:
   Stefan Grimme, W. Hujo, H. Kruse, P. Pracht,  : VdW corrections, initial TS optimization,
                  C. Bannwarth, S. Ehlert          DFT functionals, gCP, sTDA/sTD-DF
   Ed Valeev, F. Pavosevic, A. Kumar             : LibInt (2-el integral package), F12 methods
   Garnet Chan, S. Sharma, J. Yang, R. Olivares  : DMRG
   Ulf Ekstrom                                   : XCFun DFT Library
   Mihaly Kallay                                 : mrcc  (arbitrary order and MRCC methods)
   Jiri Pittner, Ondrej Demel                    : Mk-CCSD
   Frank Weinhold                                : gennbo (NPA and NBO analysis)
   Christopher J. Cramer and Donald G. Truhlar   : smd solvation model
   Lars Goerigk                                  : TD-DFT with DH, B97 family of functionals
   V. Asgeirsson, H. Jonsson                     : NEB implementation
   FAccTs GmbH                                   : IRC, NEB, NEB-TS, DLPNO-Multilevel, CI-OPT
                                                   MM, QMMM, 2- and 3-layer-ONIOM, Crystal-QMMM,
                                                   LR-CPCM, SF, NACMEs, symmetry and pop. for TD-DFT,
                                                   nearIR, NL-DFT gradient (VV10), updates on ESD,
                                                   ML-optimized integration grids
   S Lehtola, MJT Oliveira, MAL Marques          : LibXC Library
   Liviu Ungur et al                             : ANISO software


 Your calculation uses the libint2 library for the computation of 2-el integrals
 For citations please refer to: http://libint.valeyev.net

 Your ORCA version has been built with support for libXC version: 5.1.0
 For citations please refer to: https://tddft.org/programs/libxc/

 This ORCA versions uses:
   CBLAS   interface :  Fast vector & matrix operations
   LAPACKE interface :  Fast linear algebra routines
   SCALAPACK package :  Parallel linear algebra routines
   Shared memory     :  Shared parallel matrices
   BLAS/LAPACK       :  OpenBLAS 0.3.15  USE64BITINT DYNAMIC_ARCH NO_AFFINITY SkylakeX SINGLE_THREADED
        Core in use  :  SkylakeX
   Copyright (c) 2011-2014, The OpenBLAS Project


================================================================================

----- Orbital basis set information -----
Your calculation utilizes the basis: aug-cc-pVTZ-J 
  Obtained from the EMSL Basis Set Exchange (bse.pnl.gov) Feb. 2017
  H, C-O : P. F. Provasi, G. A. Aucar, S. P. A. Sauer, J. Chem. Phys. 115, 1324 (2001)
           R. A. Kendall, T. H. Dunning, Jr., R. J. Harrison, J. Chem. Phys. 96, 6796 (1992)
           T. Enevoldsen, J. Oddershede, S. P. A. Sauer, Theor. Chem. Acc. 100, 275 (1998)
           T. H. Dunning, Jr., J. Chem. Phys. 90, 1007 (1989)
       B : P. F. Provasi, S. P. A. Sauer, J. Chem. Phys. 133, 054308 (2010)
           T. Enevoldsen, J. Oddershede, S. P. A. Sauer, Theor. Chem. Acc. 100, 275 (1998)
           T. H. Dunning, Jr., J. Chem. Phys. 90, 1007 (1989)
       F : R. A. Kendall, T. H. Dunning, Jr., R. J. Harrison, J. Chem. Phys. 96, 6796 (1992)
           T. Enevoldsen, J. Oddershede, S. P. A. Sauer, Theor. Chem. Acc. 100, 275 (1998)
           T. H. Dunning, Jr., J. Chem. Phys. 90, 1007 (1989)
           V. Barone, P. F. Provasi, J. E. Peralta, J. P. Snyder, S. P. A. Sauer, R. H. Contreras, J. Phys. Chem. A 107, 4748 (2003)
      Al : D. E. Woon, T. H. Dunning, Jr., J. Chem. Phys. 98, 1358 (1993)
           P. F. Provasi, S. P. A. Sauer, J. Chem. Phys. 133, 054308 (2010)
           T. Enevoldsen, J. Oddershede, S. P. A. Sauer, Theor. Chem. Acc. 100, 275 (1998)
      Si : D. E. Woon, T. H. Dunning, Jr., J. Chem. Phys. 98, 1358 (1993)
           P. F. Provasi, S. P. A. Sauer, J. Chem. Phys. 133, 054308 (2010)
           S. P. A. Sauer, W. T. Raynes, J. Chem. Phys. 113, 3121 (2000)
           S. P. A. Sauer, W. T. Raynes, R. A. Nicholls, J. Chem. Phys. 115, 5994 (2001)
   P, Cl : D. E. Woon, T. H. Dunning, Jr., J. Chem. Phys. 98, 1358 (1993)
           P. F. Provasi, S. P. A. Sauer, J. Chem. Phys. 133, 054308 (2010)
       S : D. E. Woon, T. H. Dunning, Jr., J. Chem. Phys. 98, 1358 (1993)
           P. F. Provasi, G. A. Aucar, S. P. A. Sauer, J. Chem. Phys. 115, 1324 (2001)
   Sc-Zn : E. D. Hedegård, J. Kongsted, S. P. A. Sauer, J. Chem. Theory Comput. 7, 4077 (2011)
           N. B. Balabanov, K. A. Peterson, J. Chem. Phys. 123, 64107 (2005)
      Se : Y. Yu. Rusakov, L. B. Krivdin, S. P. A. Sauer, E. P. Levanova, G. G. Levkovskaya, Magn. Res. Chem. 48, 44-52 (2010)

================================================================================
                                        WARNINGS
                       Please study these warnings very carefully!
================================================================================


WARNING: Geometry Optimization
  ===> : Switching off AutoStart
         For restart on a previous wavefunction, please use MOREAD

INFO   : the flag for use of the SHARK integral package has been found!



***************************************
The coordinates will be read from file: 
***************************************


================================================================================

----- Orbital basis set information -----
Your calculation utilizes the basis: aug-cc-pVTZ-J 
  Obtained from the EMSL Basis Set Exchange (bse.pnl.gov) Feb. 2017
  H, C-O : P. F. Provasi, G. A. Aucar, S. P. A. Sauer, J. Chem. Phys. 115, 1324 (2001)
           R. A. Kendall, T. H. Dunning, Jr., R. J. Harrison, J. Chem. Phys. 96, 6796 (1992)
           T. Enevoldsen, J. Oddershede, S. P. A. Sauer, Theor. Chem. Acc. 100, 275 (1998)
           T. H. Dunning, Jr., J. Chem. Phys. 90, 1007 (1989)
       B : P. F. Provasi, S. P. A. Sauer, J. Chem. Phys. 133, 054308 (2010)
           T. Enevoldsen, J. Oddershede, S. P. A. Sauer, Theor. Chem. Acc. 100, 275 (1998)
           T. H. Dunning, Jr., J. Chem. Phys. 90, 1007 (1989)
       F : R. A. Kendall, T. H. Dunning, Jr., R. J. Harrison, J. Chem. Phys. 96, 6796 (1992)
           T. Enevoldsen, J. Oddershede, S. P. A. Sauer, Theor. Chem. Acc. 100, 275 (1998)
           T. H. Dunning, Jr., J. Chem. Phys. 90, 1007 (1989)
           V. Barone, P. F. Provasi, J. E. Peralta, J. P. Snyder, S. P. A. Sauer, R. H. Contreras, J. Phys. Chem. A 107, 4748 (2003)
      Al : D. E. Woon, T. H. Dunning, Jr., J. Chem. Phys. 98, 1358 (1993)
           P. F. Provasi, S. P. A. Sauer, J. Chem. Phys. 133, 054308 (2010)
           T. Enevoldsen, J. Oddershede, S. P. A. Sauer, Theor. Chem. Acc. 100, 275 (1998)
      Si : D. E. Woon, T. H. Dunning, Jr., J. Chem. Phys. 98, 1358 (1993)
           P. F. Provasi, S. P. A. Sauer, J. Chem. Phys. 133, 054308 (2010)
           S. P. A. Sauer, W. T. Raynes, J. Chem. Phys. 113, 3121 (2000)
           S. P. A. Sauer, W. T. Raynes, R. A. Nicholls, J. Chem. Phys. 115, 5994 (2001)
   P, Cl : D. E. Woon, T. H. Dunning, Jr., J. Chem. Phys. 98, 1358 (1993)
           P. F. Provasi, S. P. A. Sauer, J. Chem. Phys. 133, 054308 (2010)
       S : D. E. Woon, T. H. Dunning, Jr., J. Chem. Phys. 98, 1358 (1993)
           P. F. Provasi, G. A. Aucar, S. P. A. Sauer, J. Chem. Phys. 115, 1324 (2001)
   Sc-Zn : E. D. Hedegård, J. Kongsted, S. P. A. Sauer, J. Chem. Theory Comput. 7, 4077 (2011)
           N. B. Balabanov, K. A. Peterson, J. Chem. Phys. 123, 64107 (2005)
      Se : Y. Yu. Rusakov, L. B. Krivdin, S. P. A. Sauer, E. P. Levanova, G. G. Levkovskaya, Magn. Res. Chem. 48, 44-52 (2010)

================================================================================
                                        WARNINGS
                       Please study these warnings very carefully!
================================================================================


INFO   : the flag for use of the SHARK integral package has been found!

================================================================================
                                       INPUT FILE
================================================================================
NAME = /beegfs/scratch/jdstates/Radical_Geometry/CX3_geometry_calcs/input_files/CX3_radical/C-Cl-H-H_radical_IN-PROGRESS/C-Cl-H-H_radical.inp
|  1> # Formula: C-Cl-H-H_radical
|  2> 
|  3> ! UKS NORI TightSCF PBE0 aug-cc-PVTZ-J xyzfile opt NOPOP
|  4> %base "C-Cl-H-H_radical_opt" 
|  5> 
|  6> * xyz 0 2
|  7> C	-0.200	-0.008	0.330
|  8> Cl	1.539	-0.003	-0.070
|  9> H	-0.688	-0.890	-0.132
| 10> H	-0.651	0.901	-0.128
| 11> *
| 12> 
| 13> $new_job
| 14> ! UKS NORI PBE0 aug-cc-PVTZ-J NBO
| 15> %base "C-Cl-H-H_radical_EPR"
| 16> 
| 17> *xyzfile 0 2
| 18> 
| 19> %EPRNMR
| 20> 	GTENSOR		TRUE
| 21> 	NUCLEI		= ALL C  {AISO, ADIP, AORB}
| 22> 	NUCLEI		= ALL H  {AISO, ADIP, AORB}
| 23> 	NUCLEI		= ALL F  {AISO, ADIP, AORB}
| 24> 	NUCLEI		= ALL Cl {AISO, ADIP, AORB}
| 25> 	NUCLEI		= ALL Br {AISO, ADIP, AORB}
| 26> 	NUCLEI		= ALL I  {AISO, ADIP, AORB}
| 27> END
| 28> 
| 29> %NBO
| 30> 	NBOKEYLIST = "$NBO NBO NPA AONBO=C PRINT=1 ARCHIVE $END"
| 31> END
| 32> 
| 33>                          ****END OF INPUT****
================================================================================


                 $$$$$$$$$$$$$$$$$$$$$$$$$$$$$$$$$$$$$$$$$$$$$$ 
                 $ THERE ARE  2 JOBS TO BE PROCESSED THIS RUN $
                 $$$$$$$$$$$$$$$$$$$$$$$$$$$$$$$$$$$$$$$$$$$$$$ 




                 $$$$$$$$$$$$$$$$  JOB NUMBER  1 $$$$$$$$$$$$$$


                       *****************************
                       * Geometry Optimization Run *
                       *****************************

Geometry optimization settings:
Update method            Update   .... BFGS
Choice of coordinates    CoordSys .... Z-matrix Internals
Initial Hessian          InHess   .... Almoef's Model

Convergence Tolerances:
Energy Change            TolE     ....  5.0000e-06 Eh
Max. Gradient            TolMAXG  ....  3.0000e-04 Eh/bohr
RMS Gradient             TolRMSG  ....  1.0000e-04 Eh/bohr
Max. Displacement        TolMAXD  ....  4.0000e-03 bohr
RMS Displacement         TolRMSD  ....  2.0000e-03 bohr
Strict Convergence                ....  False
------------------------------------------------------------------------------
                        ORCA OPTIMIZATION COORDINATE SETUP
------------------------------------------------------------------------------

The optimization will be done in new redundant internal coordinates
Making redundant internal coordinates   ...  (new redundants) done
Evaluating the initial hessian          ...  (Almloef) done
Evaluating the coordinates              ...  done
Calculating the B-matrix                .... done
Calculating the G-matrix                .... done
Diagonalizing the G-matrix              .... done
The first mode is                       ....    1
The number of degrees of freedom        ....    6

    -----------------------------------------------------------------
                    Redundant Internal Coordinates


    -----------------------------------------------------------------
         Definition                    Initial Value    Approx d2E/dq
    -----------------------------------------------------------------
      1. B(Cl  1,C   0)                  1.7844         0.329205   
      2. B(H   2,C   0)                  1.1088         0.336028   
      3. B(H   3,C   0)                  1.1133         0.330554   
      4. A(Cl  1,C   0,H   3)          107.4747         0.326230   
      5. A(H   2,C   0,H   3)          107.4437         0.283890   
      6. A(Cl  1,C   0,H   2)          109.7387         0.327113   
      7. I(Cl  1,H   3,H   2,C   0)    -57.3414         0.003931   
    -----------------------------------------------------------------

Number of atoms                         .... 4
Number of degrees of freedom            .... 7

         *************************************************************
         *                GEOMETRY OPTIMIZATION CYCLE   1            *
         *************************************************************
---------------------------------
CARTESIAN COORDINATES (ANGSTROEM)
---------------------------------
  C     -0.200000   -0.008000    0.330000
  Cl     1.539000   -0.003000   -0.070000
  H     -0.688000   -0.890000   -0.132000
  H     -0.651000    0.901000   -0.128000

----------------------------
CARTESIAN COORDINATES (A.U.)
----------------------------
  NO LB      ZA    FRAG     MASS         X           Y           Z
   0 C     6.0000    0    12.011   -0.377945   -0.015118    0.623610
   1 Cl   17.0000    0    35.453    2.908289   -0.005669   -0.132281
   2 H     1.0000    0     1.008   -1.300132   -1.681856   -0.249444
   3 H     1.0000    0     1.008   -1.230212    1.702643   -0.241885

--------------------------------
INTERNAL COORDINATES (ANGSTROEM)
--------------------------------
 C      0   0   0     0.000000000000     0.00000000     0.00000000
 Cl     1   0   0     1.784417552032     0.00000000     0.00000000
 H      1   2   0     1.108833621424   109.73869306     0.00000000
 H      1   2   3     1.113304091432   107.47466153   243.45829772

---------------------------
INTERNAL COORDINATES (A.U.)
---------------------------
 C      0   0   0     0.000000000000     0.00000000     0.00000000
 Cl     1   0   0     3.372060481903     0.00000000     0.00000000
 H      1   2   0     2.095391872575   109.73869306     0.00000000
 H      1   2   3     2.103839836581   107.47466153   243.45829772

---------------------
BASIS SET INFORMATION
---------------------
There are 3 groups of distinct atoms

 Group   1 Type C   : 15s6p3d1f contracted to 9s5p3d1f pattern {711111111/21111/111/1}
 Group   2 Type Cl  : 32s15p6d1f contracted to 10s7p6d1f pattern {121211111111/5511111/111111/1}
 Group   3 Type H   : 10s3p1d contracted to 6s3p1d pattern {511111/111/1}

Atom   0C    basis set group =>   1
Atom   1Cl   basis set group =>   2
Atom   2H    basis set group =>   3
Atom   3H    basis set group =>   3
------------------------------------------------------------------------------
                           ORCA GTO INTEGRAL CALCULATION
------------------------------------------------------------------------------
------------------------------------------------------------------------------
                   ___                                                        
                  /   \      - P O W E R E D   B Y -                         
                 /     \                                                     
                 |  |  |   _    _      __       _____    __    __             
                 |  |  |  | |  | |    /  \     |  _  \  |  |  /  |          
                  \  \/   | |  | |   /    \    | | | |  |  | /  /          
                 / \  \   | |__| |  /  /\  \   | |_| |  |  |/  /          
                |  |  |   |  __  | /  /__\  \  |    /   |      \           
                |  |  |   | |  | | |   __   |  |    \   |  |\   \          
                \     /   | |  | | |  |  |  |  | |\  \  |  | \   \       
                 \___/    |_|  |_| |__|  |__|  |_| \__\ |__|  \__/        
                                                                              
                      - O R C A' S   B I G   F R I E N D -                    
                                      &                                       
                       - I N T E G R A L  F E E D E R -                       
                                                                              
 v1 FN, 2020, v2 2021                                                         
------------------------------------------------------------------------------


Reading SHARK input file C-Cl-H-H_radical_opt.SHARKINP.tmp ... ok
----------------------
SHARK INTEGRAL PACKAGE
----------------------

Number of atoms                             ...      4
Number of basis functions                   ...    173
Number of shells                            ...     75
Maximum angular momentum                    ...      3
Integral batch strategy                     ... SHARK/LIBINT Hybrid
RI-J (if used) integral strategy            ... SPLIT-RIJ (Revised 2003 algorithm where possible)
Printlevel                                  ...      1
Contraction scheme used                     ... PARTIAL GENERAL contraction
Coulomb Range Separation                    ... NOT USED
Exchange Range Separation                   ... NOT USED
Finite Nucleus Model                        ... NOT USED
Auxiliary Coulomb fitting basis             ... NOT available
Auxiliary J/K fitting basis                 ... NOT available
Auxiliary Correlation fitting basis         ... NOT available
Auxiliary 'external' fitting basis          ... NOT available
Integral threshold                          ...     2.500000e-11
Primitive cut-off                           ...     2.500000e-12
Primitive pair pre-selection threshold      ...     2.500000e-12

Calculating pre-screening integrals         ... done (  0.0 sec) Dimension = 75
Calculating pre-screening integrals (ORCA)  ... done (  0.1 sec) Dimension = 62
Organizing shell pair data                  ... done (  0.0 sec)
Shell pair information
Total number of shell pairs                 ...      2850
Shell pairs after pre-screening             ...      2543
Total number of primitive shell pairs       ...      4137
Primitive shell pairs kept                  ...      3324
          la=0 lb=0:    693 shell pairs
          la=1 lb=0:    773 shell pairs
          la=1 lb=1:    223 shell pairs
          la=2 lb=0:    415 shell pairs
          la=2 lb=1:    229 shell pairs
          la=2 lb=2:     66 shell pairs
          la=3 lb=0:     77 shell pairs
          la=3 lb=1:     42 shell pairs
          la=3 lb=2:     22 shell pairs
          la=3 lb=3:      3 shell pairs

Calculating one electron integrals          ... done (  0.0 sec)
Calculating Nuclear repulsion               ... done (  0.0 sec) ENN=     43.806733456897 Eh

SHARK setup successfully completed in   0.3 seconds

Maximum memory used throughout the entire GTOINT-calculation: 38.6 MB
-------------------------------------------------------------------------------
                                 ORCA SCF
-------------------------------------------------------------------------------

------------
SCF SETTINGS
------------
Hamiltonian:
 Density Functional     Method          .... DFT(GTOs)
 Exchange Functional    Exchange        .... PBE
   PBE kappa parameter   XKappa         ....  0.804000
   PBE mue parameter    XMuePBE         ....  0.219520
 Correlation Functional Correlation     .... PBE
   PBE beta parameter  CBetaPBE         ....  0.066725
 LDA part of GGA corr.  LDAOpt          .... PW91-LDA
 Gradients option       PostSCFGGA      .... off
 Hybrid DFT is turned on
   Fraction HF Exchange ScalHFX         ....  0.250000
   Scaling of DF-GGA-X  ScalDFX         ....  0.750000
   Scaling of DF-GGA-C  ScalDFC         ....  1.000000
   Scaling of DF-LDA-C  ScalLDAC        ....  1.000000
   Perturbative correction              ....  0.000000
   Density functional embedding theory  .... OFF
   NL short-range parameter             ....  6.900000


General Settings:
 Integral files         IntName         .... C-Cl-H-H_radical_opt
 Hartree-Fock type      HFTyp           .... UHF
 Total Charge           Charge          ....    0
 Multiplicity           Mult            ....    2
 Number of Electrons    NEL             ....   25
 Basis Dimension        Dim             ....  154
 Nuclear Repulsion      ENuc            ....     43.8067334569 Eh

Convergence Acceleration:
 DIIS                   CNVDIIS         .... on
   Start iteration      DIISMaxIt       ....    12
   Startup error        DIISStart       ....  0.200000
   # of expansion vecs  DIISMaxEq       ....     5
   Bias factor          DIISBfac        ....   1.050
   Max. coefficient     DIISMaxC        ....  10.000
 Trust-Rad. Augm. Hess. CNVTRAH         .... auto
   Auto Start mean grad. ratio tolernc. ....  1.125000
   Auto Start start iteration           ....    20
   Auto Start num. interpolation iter.  ....    10
   Max. Number of Micro iterations      ....    16
   Max. Number of Macro iterations      .... Maxiter - #DIIS iter
   Number of Davidson start vectors     ....     2
   Converg. threshold I  (grad. norm)   ....   1.000e-05
   Converg. threshold II (energy diff.) ....   1.000e-08
   Grad. Scal. Fac. for Micro threshold ....   0.100
   Minimum threshold for Micro iter.    ....   0.010
   NR start threshold (gradient norm)   ....   0.001
   Initial trust radius                 ....   0.400
   Minimum AH scaling param. (alpha)    ....   1.000
   Maximum AH scaling param. (alpha)    .... 1000.000
   Orbital update algorithm             .... Taylor
   White noise on init. David. guess    .... on
   Maximum white noise                  ....   0.010
   Quad. conv. algorithm                .... NR
 SOSCF                  CNVSOSCF        .... off
 Level Shifting         CNVShift        .... on
   Level shift para.    LevelShift      ....    0.2500
   Turn off err/grad.   ShiftErr        ....    0.0010
 Zerner damping         CNVZerner       .... off
 Static damping         CNVDamp         .... on
   Fraction old density DampFac         ....    0.7000
   Max. Damping (<1)    DampMax         ....    0.9800
   Min. Damping (>=0)   DampMin         ....    0.0000
   Turn off err/grad.   DampErr         ....    0.1000
 Fernandez-Rico         CNVRico         .... off

SCF Procedure:
 Maximum # iterations   MaxIter         ....   125
 SCF integral mode      SCFMode         .... Direct
   Integral package                     .... SHARK and LIBINT hybrid scheme
 Reset frequency        DirectResetFreq ....    20
 Integral Threshold     Thresh          ....  2.500e-11 Eh
 Primitive CutOff       TCut            ....  2.500e-12 Eh

Convergence Tolerance:
 Convergence Check Mode ConvCheckMode   .... Total+1el-Energy
 Convergence forced     ConvForced      .... 0
 Energy Change          TolE            ....  1.000e-08 Eh
 1-El. energy change                    ....  1.000e-05 Eh
 DIIS Error             TolErr          ....  5.000e-07


Diagonalization of the overlap matrix:
Smallest eigenvalue                        ... 7.703e-05
Time for diagonalization                   ...    0.007 sec
Threshold for overlap eigenvalues          ... 1.000e-08
Number of eigenvalues below threshold      ... 0
Time for construction of square roots      ...    0.004 sec
Total time needed                          ...    0.011 sec

Time for model grid setup =    0.049 sec

------------------------------
INITIAL GUESS: MODEL POTENTIAL
------------------------------
Loading Hartree-Fock densities                     ... done
Calculating cut-offs                               ... done
Initializing the effective Hamiltonian             ... done
Setting up the integral package (SHARK)            ... done
Starting the Coulomb interaction                   ... done (   0.0 sec)
Reading the grid                                   ... done
Mapping shells                                     ... done
Starting the XC term evaluation                    ... done (   0.1 sec)
  promolecular density results
     # of electrons  =     24.998842076
     EX              =    -33.016759458
     EC              =     -0.904612915
     EX+EC           =    -33.921372373
Transforming the Hamiltonian                       ... done (   0.0 sec)
Diagonalizing the Hamiltonian                      ... done (   0.0 sec)
Back transforming the eigenvectors                 ... done (   0.0 sec)
Now organizing SCF variables                       ... done
                      ------------------
                      INITIAL GUESS DONE (   0.1 sec)
                      ------------------
-------------------
DFT GRID GENERATION
-------------------

General Integration Accuracy     IntAcc      ... 4.388
Radial Grid Type                 RadialGrid  ... OptM3 with GC (2021)
Angular Grid (max. ang.)         AngularGrid ... 4 (Lebedev-302)
Angular grid pruning method      GridPruning ... 4 (adaptive)
Weight generation scheme         WeightScheme... Becke
Basis function cutoff            BFCut       ... 1.0000e-11
Integration weight cutoff        WCut        ... 1.0000e-14
Angular grids for H and He will be reduced by one unit
Partially contracted basis set               ... off
Rotationally invariant grid construction     ... off

Total number of grid points                  ...    21162
Total number of batches                      ...      332
Average number of points per batch           ...       63
Average number of grid points per atom       ...     5290
Time for grid setup =    0.177 sec

--------------
SCF ITERATIONS
--------------
ITER       Energy         Delta-E        Max-DP      RMS-DP      [F,P]     Damp
               ***  Starting incremental Fock matrix formation  ***
  0   -499.2378294084   0.000000000000 0.02158848  0.00036749  0.0670823 0.7000
  1   -499.2502546259  -0.012425217476 0.01555541  0.00027049  0.0406615 0.7000
                               ***Turning on DIIS***
  2   -499.2558582076  -0.005603581699 0.03690853  0.00061254  0.0264344 0.0000
  3   -499.2657484886  -0.009890280952 0.01017045  0.00015916  0.0212070 0.0000
  4   -499.2682364246  -0.002487936061 0.00346579  0.00006443  0.0062101 0.0000
  5   -499.2685471127  -0.000310688097 0.00234880  0.00004116  0.0036401 0.0000
  6   -499.2686704209  -0.000123308189 0.00183280  0.00002742  0.0024999 0.0000
  7   -499.2687201249  -0.000049703973 0.00114349  0.00001655  0.0014547 0.0000
  8   -499.2687370688  -0.000016943933 0.00138436  0.00001664  0.0008473 0.0000
  9   -499.2687439419  -0.000006873060 0.00016910  0.00000303  0.0002185 0.0000
 10   -499.2687442034  -0.000000261509 0.00010846  0.00000129  0.0001138 0.0000
 11   -499.2687443255  -0.000000122052 0.00002032  0.00000034  0.0000225 0.0000
 12   -499.2687443301  -0.000000004637 0.00000849  0.00000016  0.0000085 0.0000
                 **** Energy Check signals convergence ****

               *****************************************************
               *                     SUCCESS                       *
               *           SCF CONVERGED AFTER  13 CYCLES          *
               *****************************************************


----------------
TOTAL SCF ENERGY
----------------

Total Energy       :         -499.26874433 Eh          -13585.79322 eV

Components:
Nuclear Repulsion  :           43.80673346 Eh            1192.04182 eV
Electronic Energy  :         -543.07547779 Eh          -14777.83504 eV
One Electron Energy:         -774.51061005 Eh          -21075.50516 eV
Two Electron Energy:          231.43513226 Eh            6297.67012 eV

Virial components:
Potential Energy   :         -997.60770875 Eh          -27146.28585 eV
Kinetic Energy     :          498.33896442 Eh           13560.49262 eV
Virial Ratio       :            2.00186576


DFT components:
N(Alpha)           :       13.000003015021 electrons
N(Beta)            :       12.000001466591 electrons
N(Total)           :       25.000004481611 electrons
E(X)               :      -24.889699396281 Eh       
E(C)               :       -0.903394628783 Eh       
E(XC)              :      -25.793094025064 Eh       
DFET-embed. en.    :        0.000000000000 Eh       

---------------
SCF CONVERGENCE
---------------

  Last Energy change         ...   -1.3331e-09  Tolerance :   1.0000e-08
  Last MAX-Density change    ...    2.2437e-06  Tolerance :   1.0000e-07
  Last RMS-Density change    ...    4.7926e-08  Tolerance :   5.0000e-09
  Last DIIS Error            ...    2.7154e-06  Tolerance :   5.0000e-07

             **** THE GBW FILE WAS UPDATED (C-Cl-H-H_radical_opt.gbw) ****
             **** DENSITY C-Cl-H-H_radical_opt.scfp WAS UPDATED ****
             **** ENERGY FILE WAS UPDATED (C-Cl-H-H_radical_opt.en.tmp) ****
----------------------
UHF SPIN CONTAMINATION
----------------------

Warning: in a DFT calculation there is little theoretical justification to 
         calculate <S**2> as in Hartree-Fock theory. We will do it anyways
         but you should keep in mind that the values have only limited relevance

Expectation value of <S**2>     :     0.754898
Ideal value S*(S+1) for S=0.5   :     0.750000
Deviation                       :     0.004898

             **** THE GBW FILE WAS UPDATED (C-Cl-H-H_radical_opt.gbw) ****
             **** DENSITY C-Cl-H-H_radical_opt.scfp WAS UPDATED ****
----------------
ORBITAL ENERGIES
----------------
                 SPIN UP ORBITALS
  NO   OCC          E(Eh)            E(eV) 
   0   1.0000    -101.720392     -2767.9526 
   1   1.0000     -10.317139      -280.7436 
   2   1.0000      -9.544698      -259.7244 
   3   1.0000      -7.278325      -198.0533 
   4   1.0000      -7.272397      -197.8920 
   5   1.0000      -7.269642      -197.8170 
   6   1.0000      -0.888833       -24.1864 
   7   1.0000      -0.690136       -18.7795 
   8   1.0000      -0.467039       -12.7088 
   9   1.0000      -0.448927       -12.2159 
  10   1.0000      -0.388748       -10.5784 
  11   1.0000      -0.325757        -8.8643 
  12   1.0000      -0.275643        -7.5006 
  13   0.0000      -0.008592        -0.2338 
  14   0.0000       0.008399         0.2286 
  15   0.0000       0.025882         0.7043 
  16   0.0000       0.050022         1.3612 
  17   0.0000       0.055134         1.5003 
  18   0.0000       0.084286         2.2935 
  19   0.0000       0.095359         2.5949 
  20   0.0000       0.097079         2.6417 
  21   0.0000       0.097706         2.6587 
  22   0.0000       0.099613         2.7106 
  23   0.0000       0.120885         3.2894 
  24   0.0000       0.143386         3.9017 
  25   0.0000       0.182649         4.9701 
  26   0.0000       0.202937         5.5222 
  27   0.0000       0.218719         5.9516 
  28   0.0000       0.242572         6.6007 
  29   0.0000       0.254541         6.9264 
  30   0.0000       0.255331         6.9479 
  31   0.0000       0.278293         7.5727 
  32   0.0000       0.294053         8.0016 
  33   0.0000       0.328167         8.9299 
  34   0.0000       0.329006         8.9527 
  35   0.0000       0.339466         9.2374 
  36   0.0000       0.350622         9.5409 
  37   0.0000       0.362059         9.8521 
  38   0.0000       0.364924         9.9301 
  39   0.0000       0.384291        10.4571 
  40   0.0000       0.410490        11.1700 
  41   0.0000       0.412433        11.2229 
  42   0.0000       0.516825        14.0635 
  43   0.0000       0.538604        14.6562 
  44   0.0000       0.580234        15.7890 
  45   0.0000       0.590681        16.0732 
  46   0.0000       0.597910        16.2700 
  47   0.0000       0.669668        18.2226 
  48   0.0000       0.675255        18.3746 
  49   0.0000       0.693431        18.8692 
  50   0.0000       0.696613        18.9558 
  51   0.0000       0.707623        19.2554 
  52   0.0000       0.713045        19.4029 
  53   0.0000       0.762530        20.7495 
  54   0.0000       0.777033        21.1441 
  55   0.0000       0.838638        22.8205 
  56   0.0000       0.861784        23.4503 
  57   0.0000       0.911546        24.8044 
  58   0.0000       0.940470        25.5915 
  59   0.0000       1.071677        29.1618 
  60   0.0000       1.080669        29.4065 
  61   0.0000       1.134785        30.8791 
  62   0.0000       1.154138        31.4057 
  63   0.0000       1.275671        34.7128 
  64   0.0000       1.284266        34.9467 
  65   0.0000       1.360165        37.0120 
  66   0.0000       1.433810        39.0160 
  67   0.0000       1.440345        39.1938 
  68   0.0000       1.958261        53.2870 
  69   0.0000       2.003864        54.5279 
  70   0.0000       2.049272        55.7635 
  71   0.0000       2.061768        56.1036 
  72   0.0000       2.081358        56.6366 
  73   0.0000       2.085666        56.7539 
  74   0.0000       2.094831        57.0032 
  75   0.0000       2.099604        57.1331 
  76   0.0000       2.111073        57.4452 
  77   0.0000       2.123615        57.7865 
  78   0.0000       2.198645        59.8282 
  79   0.0000       2.209709        60.1292 
  80   0.0000       2.241926        61.0059 
  81   0.0000       2.262481        61.5652 
  82   0.0000       2.313186        62.9450 
  83   0.0000       2.362624        64.2903 
  84   0.0000       2.386486        64.9396 
  85   0.0000       2.402614        65.3785 
  86   0.0000       2.589994        70.4773 
  87   0.0000       2.668305        72.6083 
  88   0.0000       2.748038        74.7779 
  89   0.0000       2.836889        77.1957 
  90   0.0000       2.861611        77.8684 
  91   0.0000       2.991935        81.4147 
  92   0.0000       3.023050        82.2614 
  93   0.0000       3.050103        82.9975 
  94   0.0000       3.056720        83.1776 
  95   0.0000       3.208942        87.3197 
  96   0.0000       3.262793        88.7851 
  97   0.0000       3.297508        89.7297 
  98   0.0000       3.325795        90.4995 
  99   0.0000       3.420813        93.0850 
 100   0.0000       3.446343        93.7797 
 101   0.0000       3.483303        94.7855 
 102   0.0000       3.672405        99.9312 
 103   0.0000       3.704054       100.7924 
 104   0.0000       3.927994       106.8862 
 105   0.0000       3.994050       108.6836 
 106   0.0000       4.015730       109.2736 
 107   0.0000       4.055460       110.3547 
 108   0.0000       4.212529       114.6287 
 109   0.0000       4.343602       118.1954 
 110   0.0000       4.607868       125.3865 
 111   0.0000       4.681265       127.3837 
 112   0.0000       4.797352       130.5426 
 113   0.0000       4.853774       132.0779 
 114   0.0000       4.963285       135.0578 
 115   0.0000       5.076892       138.1493 
 116   0.0000       5.623950       153.0355 
 117   0.0000       5.834438       158.7631 
 118   0.0000       6.753098       183.7611 
 119   0.0000       6.761133       183.9798 
 120   0.0000       6.811706       185.3560 
 121   0.0000       6.839875       186.1224 
 122   0.0000       6.944855       188.9791 
 123   0.0000       8.891922       241.9615 
 124   0.0000       9.392633       255.5865 
 125   0.0000       9.404733       255.9158 
 126   0.0000       9.886694       269.0306 
 127   0.0000       9.940227       270.4873 
 128   0.0000      10.246526       278.8221 
 129   0.0000      10.305890       280.4375 
 130   0.0000      10.523213       286.3512 
 131   0.0000      12.068126       328.3904 
 132   0.0000      12.823155       348.9358 
 133   0.0000      23.894476       650.2017 
 134   0.0000      23.900276       650.3596 
 135   0.0000      23.935663       651.3225 
 136   0.0000      23.954092       651.8240 
 137   0.0000      24.013948       653.4527 
 138   0.0000      46.393614      1262.4344 
 139   0.0000      47.434650      1290.7624 
 140   0.0000      47.484310      1292.1138 
 141   0.0000      47.589291      1294.9704 
 142   0.0000      47.928718      1304.2067 
 143   0.0000      67.329265      1832.1224 
 144   0.0000      67.381992      1833.5572 
 145   0.0000      85.809707      2335.0008 
 146   0.0000      85.813388      2335.1010 
 147   0.0000      85.837525      2335.7578 
 148   0.0000      85.849812      2336.0921 
 149   0.0000      85.883866      2337.0188 
 150   0.0000     169.130830      4602.2839 
 151   0.0000     170.686815      4644.6244 
 152   0.0000     800.081747     21771.3312 
 153   0.0000     875.066244     23811.7631 

                 SPIN DOWN ORBITALS
  NO   OCC          E(Eh)            E(eV) 
   0   1.0000    -101.719354     -2767.9243 
   1   1.0000     -10.300974      -280.3038 
   2   1.0000      -9.543729      -259.6981 
   3   1.0000      -7.277660      -198.0352 
   4   1.0000      -7.269089      -197.8020 
   5   1.0000      -7.269053      -197.8010 
   6   1.0000      -0.877967       -23.8907 
   7   1.0000      -0.659473       -17.9452 
   8   1.0000      -0.456586       -12.4243 
   9   1.0000      -0.436335       -11.8733 
  10   1.0000      -0.353847        -9.6287 
  11   1.0000      -0.322470        -8.7749 
  12   0.0000      -0.100920        -2.7462 
  13   0.0000      -0.002529        -0.0688 
  14   0.0000       0.015161         0.4125 
  15   0.0000       0.027316         0.7433 
  16   0.0000       0.059603         1.6219 
  17   0.0000       0.062921         1.7122 
  18   0.0000       0.088068         2.3964 
  19   0.0000       0.095882         2.6091 
  20   0.0000       0.101751         2.7688 
  21   0.0000       0.102934         2.8010 
  22   0.0000       0.106784         2.9057 
  23   0.0000       0.130727         3.5573 
  24   0.0000       0.151393         4.1196 
  25   0.0000       0.185147         5.0381 
  26   0.0000       0.203835         5.5466 
  27   0.0000       0.231252         6.2927 
  28   0.0000       0.251495         6.8435 
  29   0.0000       0.258543         7.0353 
  30   0.0000       0.263036         7.1576 
  31   0.0000       0.290511         7.9052 
  32   0.0000       0.297559         8.0970 
  33   0.0000       0.334713         9.1080 
  34   0.0000       0.336483         9.1562 
  35   0.0000       0.343962         9.3597 
  36   0.0000       0.362180         9.8554 
  37   0.0000       0.376264        10.2387 
  38   0.0000       0.377323        10.2675 
  39   0.0000       0.394896        10.7457 
  40   0.0000       0.414935        11.2909 
  41   0.0000       0.416250        11.3267 
  42   0.0000       0.528634        14.3849 
  43   0.0000       0.543543        14.7906 
  44   0.0000       0.591263        16.0891 
  45   0.0000       0.602599        16.3976 
  46   0.0000       0.618721        16.8363 
  47   0.0000       0.674768        18.3614 
  48   0.0000       0.681795        18.5526 
  49   0.0000       0.702219        19.1083 
  50   0.0000       0.704519        19.1709 
  51   0.0000       0.713574        19.4173 
  52   0.0000       0.716981        19.5101 
  53   0.0000       0.773809        21.0564 
  54   0.0000       0.786754        21.4087 
  55   0.0000       0.860386        23.4123 
  56   0.0000       0.868377        23.6297 
  57   0.0000       0.930596        25.3228 
  58   0.0000       0.964039        26.2328 
  59   0.0000       1.090964        29.6866 
  60   0.0000       1.092873        29.7386 
  61   0.0000       1.149437        31.2778 
  62   0.0000       1.173464        31.9316 
  63   0.0000       1.292713        35.1765 
  64   0.0000       1.300130        35.3783 
  65   0.0000       1.374684        37.4070 
  66   0.0000       1.441917        39.2366 
  67   0.0000       1.448173        39.4068 
  68   0.0000       1.981005        53.9059 
  69   0.0000       2.017118        54.8886 
  70   0.0000       2.062215        56.1157 
  71   0.0000       2.069076        56.3024 
  72   0.0000       2.089478        56.8576 
  73   0.0000       2.092401        56.9371 
  74   0.0000       2.097138        57.0660 
  75   0.0000       2.108032        57.3625 
  76   0.0000       2.123398        57.7806 
  77   0.0000       2.132253        58.0215 
  78   0.0000       2.205652        60.0188 
  79   0.0000       2.221495        60.4499 
  80   0.0000       2.248738        61.1913 
  81   0.0000       2.292453        62.3808 
  82   0.0000       2.330260        63.4096 
  83   0.0000       2.387909        64.9783 
  84   0.0000       2.392655        65.1075 
  85   0.0000       2.405004        65.4435 
  86   0.0000       2.608522        70.9815 
  87   0.0000       2.686046        73.0910 
  88   0.0000       2.783657        75.7472 
  89   0.0000       2.858453        77.7825 
  90   0.0000       2.890698        78.6599 
  91   0.0000       3.020727        82.1981 
  92   0.0000       3.055020        83.1313 
  93   0.0000       3.065929        83.4282 
  94   0.0000       3.111308        84.6630 
  95   0.0000       3.254921        88.5709 
  96   0.0000       3.293533        89.6216 
  97   0.0000       3.302582        89.8678 
  98   0.0000       3.344167        90.9994 
  99   0.0000       3.455100        94.0181 
 100   0.0000       3.456460        94.0551 
 101   0.0000       3.506928        95.4284 
 102   0.0000       3.689320       100.3915 
 103   0.0000       3.720049       101.2277 
 104   0.0000       3.948891       107.4548 
 105   0.0000       4.001976       108.8993 
 106   0.0000       4.022493       109.4576 
 107   0.0000       4.063180       110.5647 
 108   0.0000       4.214767       114.6897 
 109   0.0000       4.353569       118.4666 
 110   0.0000       4.618658       125.6801 
 111   0.0000       4.702119       127.9512 
 112   0.0000       4.811271       130.9213 
 113   0.0000       4.872337       132.5830 
 114   0.0000       4.977719       135.4506 
 115   0.0000       5.086071       138.3990 
 116   0.0000       5.639273       153.4524 
 117   0.0000       5.848909       159.1569 
 118   0.0000       6.755788       183.8343 
 119   0.0000       6.763996       184.0577 
 120   0.0000       6.814604       185.4348 
 121   0.0000       6.839900       186.1232 
 122   0.0000       6.946834       189.0330 
 123   0.0000       8.948955       243.5134 
 124   0.0000       9.404043       255.8970 
 125   0.0000       9.417487       256.2628 
 126   0.0000       9.891925       269.1730 
 127   0.0000       9.941075       270.5104 
 128   0.0000      10.252627       278.9882 
 129   0.0000      10.311107       280.5795 
 130   0.0000      10.527373       286.4644 
 131   0.0000      12.090064       328.9874 
 132   0.0000      12.825845       349.0090 
 133   0.0000      23.896288       650.2511 
 134   0.0000      23.902225       650.4126 
 135   0.0000      23.937523       651.3731 
 136   0.0000      23.954135       651.8252 
 137   0.0000      24.014654       653.4720 
 138   0.0000      46.411304      1262.9158 
 139   0.0000      47.437555      1290.8415 
 140   0.0000      47.484797      1292.1270 
 141   0.0000      47.590380      1295.0001 
 142   0.0000      47.929321      1304.2231 
 143   0.0000      67.329312      1832.1237 
 144   0.0000      67.382008      1833.5577 
 145   0.0000      85.812125      2335.0666 
 146   0.0000      85.815979      2335.1715 
 147   0.0000      85.840012      2335.8255 
 148   0.0000      85.850055      2336.0988 
 149   0.0000      85.884823      2337.0448 
 150   0.0000     169.131972      4602.3149 
 151   0.0000     170.695759      4644.8678 
 152   0.0000     800.087044     21771.4753 
 153   0.0000     875.066770     23811.7774 
-------
TIMINGS
-------

Total SCF time: 0 days 0 hours 0 min 33 sec 

Total time                  ....      33.765 sec
Sum of individual times     ....      33.335 sec  ( 98.7%)

Fock matrix formation       ....      32.618 sec  ( 96.6%)
  XC integration            ....       5.161 sec  ( 15.8% of F)
    Basis function eval.    ....       0.948 sec  ( 18.4% of XC)
    Density eval.           ....       1.175 sec  ( 22.8% of XC)
    XC-Functional eval.     ....       0.410 sec  (  7.9% of XC)
    XC-Potential eval.      ....       2.332 sec  ( 45.2% of XC)
Diagonalization             ....       0.192 sec  (  0.6%)
Density matrix formation    ....       0.010 sec  (  0.0%)
Population analysis         ....       0.001 sec  (  0.0%)
Initial guess               ....       0.094 sec  (  0.3%)
Orbital Transformation      ....       0.000 sec  (  0.0%)
Orbital Orthonormalization  ....       0.000 sec  (  0.0%)
DIIS solution               ....       0.194 sec  (  0.6%)
Grid generation             ....       0.226 sec  (  0.7%)

Maximum memory used throughout the entire SCF-calculation: 248.0 MB

-------------------------   --------------------
FINAL SINGLE POINT ENERGY      -499.268744331421
-------------------------   --------------------

------------------------------------------------------------------------------
                         ORCA SCF GRADIENT CALCULATION
------------------------------------------------------------------------------

Gradient of the Kohn-Sham DFT energy:
Kohn-Sham wavefunction type      ... UKS
Hartree-Fock exchange scaling    ...    0.250
Number of operators              ...    2
Number of atoms                  ...    4
Basis set dimensions             ...  154
Integral neglect threshold       ... 2.5e-11
Integral primitive cutoff        ... 2.5e-12
SHARK Integral package           ... ON

Nuc. rep. gradient       (SHARK) ... done (  0.0 sec)
HCore & Overlap gradient (SHARK) ... done (  0.0 sec)
Two-Electron gradient    (SHARK) ... done (  7.7 sec)
Exchange-correlation gradient    ... done

------------------
CARTESIAN GRADIENT
------------------

   1   C   :   -0.012281376   -0.005112189    0.053459695
   2   Cl  :    0.025456321    0.001738332   -0.013219893
   3   H   :   -0.007492498   -0.001864328   -0.019213496
   4   H   :   -0.005682446    0.005238185   -0.021026306

Difference to translation invariance:
           :    0.0000000000    0.0000000000    0.0000000000

Difference to rotation invariance:
           :    0.0000007440    0.0000225065    0.0000000154

Norm of the cartesian gradient     ...    0.0692193856
RMS gradient                       ...    0.0199819155
MAX gradient                       ...    0.0534596951

-------
TIMINGS
-------

Total SCF gradient time            ...        8.782 sec

One electron gradient       ....       0.046 sec  (  0.5%)
Two electron gradient       ....       7.728 sec  ( 88.0%)
XC gradient                 ....       0.906 sec  ( 10.3%)

Maximum memory used throughout the entire SCFGRAD-calculation: 47.5 MB
------------------------------------------------------------------------------
                         ORCA GEOMETRY RELAXATION STEP
------------------------------------------------------------------------------

Reading the OPT-File                    .... done
Getting information on internals        .... done
Copying old internal coords+grads       .... done
Making the new internal coordinates     .... (new redundants).... done
Validating the new internal coordinates .... (new redundants).... done
Calculating the B-matrix                .... done
Calculating the G,G- and P matrices     .... done
Transforming gradient to internals      .... done
Projecting the internal gradient        .... done
Number of atoms                         ....   4
Number of internal coordinates          ....   7
Current Energy                          ....  -499.268744331 Eh
Current gradient norm                   ....     0.069219386 Eh/bohr
Maximum allowed component of the step   ....  0.300
Current trust radius                    ....  0.300
Evaluating the initial hessian          ....  (Almloef) done
Projecting the Hessian                  .... done
Forming the augmented Hessian           .... done
Diagonalizing the augmented Hessian     .... done
Last element of RFO vector              ....  0.970249753
Lowest eigenvalues of augmented Hessian:
 -0.011052233  0.115319080  0.290243632  0.326690925  0.330109525
Length of the computed step             ....  0.249529781
The final length of the internal step   ....  0.249529781
Converting the step to cartesian space:
 Initial RMS(Int)=    0.0943133922
Transforming coordinates:
 Iter   0:  RMS(Cart)=    0.0528020939 RMS(Int)=    0.0947851748
 Iter   1:  RMS(Cart)=    0.0045888795 RMS(Int)=    0.0064300734
 Iter   2:  RMS(Cart)=    0.0003686768 RMS(Int)=    0.0005409711
 Iter   3:  RMS(Cart)=    0.0000555982 RMS(Int)=    0.0000725830
 Iter   4:  RMS(Cart)=    0.0000035573 RMS(Int)=    0.0000058572
 Iter   5:  RMS(Cart)=    0.0000005692 RMS(Int)=    0.0000007218
 Iter   6:  RMS(Cart)=    0.0000000415 RMS(Int)=    0.0000000670
done
Storing new coordinates                 .... done

                                .--------------------.
          ----------------------|Geometry convergence|-------------------------
          Item                value                   Tolerance       Converged
          ---------------------------------------------------------------------
          RMS gradient        0.0188406310            0.0001000000      NO
          MAX gradient        0.0292680928            0.0003000000      NO
          RMS step            0.0943133922            0.0020000000      NO
          MAX step            0.1701392790            0.0040000000      NO
          ........................................................
          Max(Bonds)      0.0432      Max(Angles)    7.17
          Max(Dihed)        0.00      Max(Improp)    9.75
          ---------------------------------------------------------------------

The optimization has not yet converged - more geometry cycles are needed


    ---------------------------------------------------------------------------
                         Redundant Internal Coordinates
                            (Angstroem and degrees)

        Definition                    Value    dE/dq     Step     New-Value
    ----------------------------------------------------------------------------
     1. B(Cl  1,C   0)                1.7844  0.027776 -0.0432    1.7412   
     2. B(H   2,C   0)                1.1088  0.012787 -0.0195    1.0893   
     3. B(H   3,C   0)                1.1133  0.015230 -0.0236    1.0897   
     4. A(Cl  1,C   0,H   3)          107.47 -0.007557    4.05    111.52   
     5. A(H   2,C   0,H   3)          107.44 -0.029268    7.17    114.61   
     6. A(Cl  1,C   0,H   2)          109.74 -0.000367    2.96    112.70   
     7. I(Cl  1,H   3,H   2,C   0)    -57.34 -0.020100    9.75    -47.59   
    ----------------------------------------------------------------------------

         *************************************************************
         *                GEOMETRY OPTIMIZATION CYCLE   2            *
         *************************************************************
---------------------------------
CARTESIAN COORDINATES (ANGSTROEM)
---------------------------------
  C     -0.192668   -0.002790    0.254117
  Cl     1.521272   -0.008305   -0.052844
  H     -0.678015   -0.910156   -0.103352
  H     -0.650589    0.921250   -0.097922

----------------------------
CARTESIAN COORDINATES (A.U.)
----------------------------
  NO LB      ZA    FRAG     MASS         X           Y           Z
   0 C     6.0000    0    12.011   -0.364091   -0.005272    0.480212
   1 Cl   17.0000    0    35.453    2.874787   -0.015694   -0.099860
   2 H     1.0000    0     1.008   -1.281262   -1.719945   -0.195307
   3 H     1.0000    0     1.008   -1.229434    1.740911   -0.185045

--------------------------------
INTERNAL COORDINATES (ANGSTROEM)
--------------------------------
 C      0   0   0     0.000000000000     0.00000000     0.00000000
 Cl     1   0   0     1.741220004176     0.00000000     0.00000000
 H      1   2   0     1.089338615674   112.21439365     0.00000000
 H      1   2   3     1.089712059881   111.06160482   230.54986582

---------------------------
INTERNAL COORDINATES (A.U.)
---------------------------
 C      0   0   0     0.000000000000     0.00000000     0.00000000
 Cl     1   0   0     3.290428946797     0.00000000     0.00000000
 H      1   2   0     2.058551650729   112.21439365     0.00000000
 H      1   2   3     2.059257358006   111.06160482   230.54986582

------------------------------------------------------------------------------
                   ___                                                        
                  /   \      - P O W E R E D   B Y -                         
                 /     \                                                     
                 |  |  |   _    _      __       _____    __    __             
                 |  |  |  | |  | |    /  \     |  _  \  |  |  /  |          
                  \  \/   | |  | |   /    \    | | | |  |  | /  /          
                 / \  \   | |__| |  /  /\  \   | |_| |  |  |/  /          
                |  |  |   |  __  | /  /__\  \  |    /   |      \           
                |  |  |   | |  | | |   __   |  |    \   |  |\   \          
                \     /   | |  | | |  |  |  |  | |\  \  |  | \   \       
                 \___/    |_|  |_| |__|  |__|  |_| \__\ |__|  \__/        
                                                                              
                      - O R C A' S   B I G   F R I E N D -                    
                                      &                                       
                       - I N T E G R A L  F E E D E R -                       
                                                                              
 v1 FN, 2020, v2 2021                                                         
------------------------------------------------------------------------------


Reading SHARK input file C-Cl-H-H_radical_opt.SHARKINP.tmp ... ok
----------------------
SHARK INTEGRAL PACKAGE
----------------------

Number of atoms                             ...      4
Number of basis functions                   ...    173
Number of shells                            ...     75
Maximum angular momentum                    ...      3
Integral batch strategy                     ... SHARK/LIBINT Hybrid
RI-J (if used) integral strategy            ... SPLIT-RIJ (Revised 2003 algorithm where possible)
Printlevel                                  ...      1
Contraction scheme used                     ... PARTIAL GENERAL contraction
Coulomb Range Separation                    ... NOT USED
Exchange Range Separation                   ... NOT USED
Finite Nucleus Model                        ... NOT USED
Auxiliary Coulomb fitting basis             ... NOT available
Auxiliary J/K fitting basis                 ... NOT available
Auxiliary Correlation fitting basis         ... NOT available
Auxiliary 'external' fitting basis          ... NOT available
Integral threshold                          ...     2.500000e-11
Primitive cut-off                           ...     2.500000e-12
Primitive pair pre-selection threshold      ...     2.500000e-12

Calculating pre-screening integrals         ... done (  0.0 sec) Dimension = 75
Calculating pre-screening integrals (ORCA)  ... done (  0.1 sec) Dimension = 62
Organizing shell pair data                  ... done (  0.0 sec)
Shell pair information
Total number of shell pairs                 ...      2850
Shell pairs after pre-screening             ...      2548
Total number of primitive shell pairs       ...      4137
Primitive shell pairs kept                  ...      3329
          la=0 lb=0:    695 shell pairs
          la=1 lb=0:    774 shell pairs
          la=1 lb=1:    223 shell pairs
          la=2 lb=0:    416 shell pairs
          la=2 lb=1:    230 shell pairs
          la=2 lb=2:     66 shell pairs
          la=3 lb=0:     77 shell pairs
          la=3 lb=1:     42 shell pairs
          la=3 lb=2:     22 shell pairs
          la=3 lb=3:      3 shell pairs

Calculating one electron integrals          ... done (  0.0 sec)
Calculating Nuclear repulsion               ... done (  0.0 sec) ENN=     44.707247366320 Eh

SHARK setup successfully completed in   0.3 seconds

Maximum memory used throughout the entire GTOINT-calculation: 38.6 MB

Diagonalization of the overlap matrix:
Smallest eigenvalue                        ... 7.703e-05
Time for diagonalization                   ...    0.007 sec
Threshold for overlap eigenvalues          ... 1.000e-08
Number of eigenvalues below threshold      ... 0
Time for construction of square roots      ...    0.004 sec
Total time needed                          ...    0.012 sec

-------------------
DFT GRID GENERATION
-------------------

General Integration Accuracy     IntAcc      ... 4.388
Radial Grid Type                 RadialGrid  ... OptM3 with GC (2021)
Angular Grid (max. ang.)         AngularGrid ... 4 (Lebedev-302)
Angular grid pruning method      GridPruning ... 4 (adaptive)
Weight generation scheme         WeightScheme... Becke
Basis function cutoff            BFCut       ... 1.0000e-11
Integration weight cutoff        WCut        ... 1.0000e-14
Angular grids for H and He will be reduced by one unit
Partially contracted basis set               ... off
Rotationally invariant grid construction     ... off

Total number of grid points                  ...    21163
Total number of batches                      ...      332
Average number of points per batch           ...       63
Average number of grid points per atom       ...     5291
Time for grid setup =    0.201 sec

--------------
SCF ITERATIONS
--------------
ITER       Energy         Delta-E        Max-DP      RMS-DP      [F,P]     Damp
               ***  Starting incremental Fock matrix formation  ***
  0   -499.2746188192   0.000000000000 0.00287222  0.00006272  0.0157247 0.7000
  1   -499.2752958719  -0.000677052665 0.00269024  0.00005784  0.0117648 0.7000
                               ***Turning on DIIS***
  2   -499.2758162859  -0.000520414067 0.00712449  0.00015375  0.0085888 0.0000
  3   -499.2771575729  -0.001341287002 0.00222298  0.00003408  0.0019580 0.0000
  4   -499.2772027960  -0.000045223084 0.00103579  0.00001565  0.0010458 0.0000
  5   -499.2772185205  -0.000015724522 0.00083666  0.00001319  0.0005516 0.0000
  6   -499.2772221852  -0.000003664699 0.00013380  0.00000250  0.0001172 0.0000
  7   -499.2772223482  -0.000000162943 0.00003797  0.00000085  0.0000546 0.0000
  8   -499.2772223905  -0.000000042308 0.00001188  0.00000027  0.0000152 0.0000
  9   -499.2772223939  -0.000000003380 0.00000361  0.00000009  0.0000057 0.0000
                            ***DIIS convergence achieved***

               *****************************************************
               *                     SUCCESS                       *
               *           SCF CONVERGED AFTER  10 CYCLES          *
               *****************************************************

Total Energy       :         -499.27722239 Eh          -13586.02392 eV
  Last Energy change         ...   -4.0149e-10  Tolerance :   1.0000e-08
  Last MAX-Density change    ...    1.0687e-06  Tolerance :   1.0000e-07
             **** THE GBW FILE WAS UPDATED (C-Cl-H-H_radical_opt.gbw) ****
             **** DENSITY C-Cl-H-H_radical_opt.scfp WAS UPDATED ****
             **** ENERGY FILE WAS UPDATED (C-Cl-H-H_radical_opt.en.tmp) ****
----------------------
UHF SPIN CONTAMINATION
----------------------

Warning: in a DFT calculation there is little theoretical justification to 
         calculate <S**2> as in Hartree-Fock theory. We will do it anyways
         but you should keep in mind that the values have only limited relevance

Expectation value of <S**2>     :     0.754952
Ideal value S*(S+1) for S=0.5   :     0.750000
Deviation                       :     0.004952

             **** THE GBW FILE WAS UPDATED (C-Cl-H-H_radical_opt.gbw) ****
             **** DENSITY C-Cl-H-H_radical_opt.scfp WAS UPDATED ****
Total SCF time: 0 days 0 hours 0 min 25 sec 

Maximum memory used throughout the entire SCF-calculation: 248.0 MB

-------------------------   --------------------
FINAL SINGLE POINT ENERGY      -499.277222394260
-------------------------   --------------------

------------------------------------------------------------------------------
                         ORCA SCF GRADIENT CALCULATION
------------------------------------------------------------------------------

Gradient of the Kohn-Sham DFT energy:
Kohn-Sham wavefunction type      ... UKS
Hartree-Fock exchange scaling    ...    0.250
Number of operators              ...    2
Number of atoms                  ...    4
Basis set dimensions             ...  154
Integral neglect threshold       ... 2.5e-11
Integral primitive cutoff        ... 2.5e-12
SHARK Integral package           ... ON

Nuc. rep. gradient       (SHARK) ... done (  0.0 sec)
HCore & Overlap gradient (SHARK) ... done (  0.1 sec)
Two-Electron gradient    (SHARK) ... done (  8.0 sec)
Exchange-correlation gradient    ... done

------------------
CARTESIAN GRADIENT
------------------

   1   C   :   -0.012044225   -0.001584866    0.026827652
   2   Cl  :    0.014544031    0.000818056   -0.007420303
   3   H   :   -0.001867165    0.000830590   -0.009482636
   4   H   :   -0.000632641   -0.000063780   -0.009924713

Difference to translation invariance:
           :    0.0000000000   -0.0000000000    0.0000000000

Difference to rotation invariance:
           :   -0.0000002217   -0.0000064458   -0.0000023147

Norm of the cartesian gradient     ...    0.0364356672
RMS gradient                       ...    0.0105180711
MAX gradient                       ...    0.0268276522

-------
TIMINGS
-------

Total SCF gradient time            ...        9.123 sec

One electron gradient       ....       0.051 sec  (  0.6%)
Two electron gradient       ....       8.032 sec  ( 88.0%)
XC gradient                 ....       0.929 sec  ( 10.2%)

Maximum memory used throughout the entire SCFGRAD-calculation: 47.5 MB
------------------------------------------------------------------------------
                         ORCA GEOMETRY RELAXATION STEP
------------------------------------------------------------------------------

Reading the OPT-File                    .... done
Getting information on internals        .... done
Copying old internal coords+grads       .... done
Making the new internal coordinates     .... (new redundants).... done
Validating the new internal coordinates .... (new redundants).... done
Calculating the B-matrix                .... done
Calculating the G,G- and P matrices     .... done
Transforming gradient to internals      .... done
Projecting the internal gradient        .... done
Number of atoms                         ....   4
Number of internal coordinates          ....   7
Current Energy                          ....  -499.277222394 Eh
Current gradient norm                   ....     0.036435667 Eh/bohr
Maximum allowed component of the step   ....  0.300
Current trust radius                    ....  0.300
Updating the Hessian (BFGS)             .... done
Forming the augmented Hessian           .... done
Diagonalizing the augmented Hessian     .... done
Last element of RFO vector              ....  0.958136629
Lowest eigenvalues of augmented Hessian:
 -0.006889611  0.068986385  0.255762988  0.308727986  0.326731213
Length of the computed step             ....  0.298821023
The final length of the internal step   ....  0.298821023
Converting the step to cartesian space:
 Initial RMS(Int)=    0.1129437306
Transforming coordinates:
 Iter   0:  RMS(Cart)=    0.0573771549 RMS(Int)=    0.1066343284
 Iter   1:  RMS(Cart)=    0.0047893677 RMS(Int)=    0.0087385031
 Iter   2:  RMS(Cart)=    0.0008697197 RMS(Int)=    0.0012515078
 Iter   3:  RMS(Cart)=    0.0000890167 RMS(Int)=    0.0001459965
 Iter   4:  RMS(Cart)=    0.0000165915 RMS(Int)=    0.0000239771
 Iter   5:  RMS(Cart)=    0.0000018711 RMS(Int)=    0.0000029203
 Iter   6:  RMS(Cart)=    0.0000002911 RMS(Int)=    0.0000004354
 Iter   7:  RMS(Cart)=    0.0000000396 RMS(Int)=    0.0000000589
done
Storing new coordinates                 .... done

                                .--------------------.
          ----------------------|Geometry convergence|-------------------------
          Item                value                   Tolerance       Converged
          ---------------------------------------------------------------------
          Energy change      -0.0084780628            0.0000050000      NO
          RMS gradient        0.0096877433            0.0001000000      NO
          MAX gradient        0.0156219330            0.0003000000      NO
          RMS step            0.1129437306            0.0020000000      NO
          MAX step            0.2254565350            0.0040000000      NO
          ........................................................
          Max(Bonds)      0.0517      Max(Angles)    7.47
          Max(Dihed)        0.00      Max(Improp)   12.92
          ---------------------------------------------------------------------

The optimization has not yet converged - more geometry cycles are needed


    ---------------------------------------------------------------------------
                         Redundant Internal Coordinates
                            (Angstroem and degrees)

        Definition                    Value    dE/dq     Step     New-Value
    ----------------------------------------------------------------------------
     1. B(Cl  1,C   0)                1.7412  0.015622 -0.0517    1.6896   
     2. B(H   2,C   0)                1.0893  0.003252 -0.0108    1.0785   
     3. B(H   3,C   0)                1.0897  0.003418 -0.0116    1.0781   
     4. A(Cl  1,C   0,H   3)          111.06 -0.003481    4.73    115.80   
     5. A(H   2,C   0,H   3)          114.40 -0.013471    7.47    121.86   
     6. A(Cl  1,C   0,H   2)          112.21 -0.000237    3.72    115.94   
     7. I(Cl  1,H   3,H   2,C   0)    -47.10 -0.014037   12.92    -34.18   
    ----------------------------------------------------------------------------

         *************************************************************
         *                GEOMETRY OPTIMIZATION CYCLE   3            *
         *************************************************************
---------------------------------
CARTESIAN COORDINATES (ANGSTROEM)
---------------------------------
  C     -0.181026    0.000838    0.167007
  Cl     1.496637   -0.012992   -0.032711
  H     -0.667064   -0.932248   -0.070267
  H     -0.648547    0.944402   -0.064030

----------------------------
CARTESIAN COORDINATES (A.U.)
----------------------------
  NO LB      ZA    FRAG     MASS         X           Y           Z
   0 C     6.0000    0    12.011   -0.342089    0.001584    0.315598
   1 Cl   17.0000    0    35.453    2.828234   -0.024552   -0.061814
   2 H     1.0000    0     1.008   -1.260569   -1.761693   -0.132784
   3 H     1.0000    0     1.008   -1.225576    1.784661   -0.120999

--------------------------------
INTERNAL COORDINATES (ANGSTROEM)
--------------------------------
 C      0   0   0     0.000000000000     0.00000000     0.00000000
 Cl     1   0   0     1.689565290621     0.00000000     0.00000000
 H      1   2   0     1.078509232568   114.48122612     0.00000000
 H      1   2   3     1.078084447177   114.35796611   214.22190000

---------------------------
INTERNAL COORDINATES (A.U.)
---------------------------
 C      0   0   0     0.000000000000     0.00000000     0.00000000
 Cl     1   0   0     3.192815684653     0.00000000     0.00000000
 H      1   2   0     2.038087082458   114.48122612     0.00000000
 H      1   2   3     2.037284354405   114.35796611   214.22190000

------------------------------------------------------------------------------
                   ___                                                        
                  /   \      - P O W E R E D   B Y -                         
                 /     \                                                     
                 |  |  |   _    _      __       _____    __    __             
                 |  |  |  | |  | |    /  \     |  _  \  |  |  /  |          
                  \  \/   | |  | |   /    \    | | | |  |  | /  /          
                 / \  \   | |__| |  /  /\  \   | |_| |  |  |/  /          
                |  |  |   |  __  | /  /__\  \  |    /   |      \           
                |  |  |   | |  | | |   __   |  |    \   |  |\   \          
                \     /   | |  | | |  |  |  |  | |\  \  |  | \   \       
                 \___/    |_|  |_| |__|  |__|  |_| \__\ |__|  \__/        
                                                                              
                      - O R C A' S   B I G   F R I E N D -                    
                                      &                                       
                       - I N T E G R A L  F E E D E R -                       
                                                                              
 v1 FN, 2020, v2 2021                                                         
------------------------------------------------------------------------------


Reading SHARK input file C-Cl-H-H_radical_opt.SHARKINP.tmp ... ok
----------------------
SHARK INTEGRAL PACKAGE
----------------------

Number of atoms                             ...      4
Number of basis functions                   ...    173
Number of shells                            ...     75
Maximum angular momentum                    ...      3
Integral batch strategy                     ... SHARK/LIBINT Hybrid
RI-J (if used) integral strategy            ... SPLIT-RIJ (Revised 2003 algorithm where possible)
Printlevel                                  ...      1
Contraction scheme used                     ... PARTIAL GENERAL contraction
Coulomb Range Separation                    ... NOT USED
Exchange Range Separation                   ... NOT USED
Finite Nucleus Model                        ... NOT USED
Auxiliary Coulomb fitting basis             ... NOT available
Auxiliary J/K fitting basis                 ... NOT available
Auxiliary Correlation fitting basis         ... NOT available
Auxiliary 'external' fitting basis          ... NOT available
Integral threshold                          ...     2.500000e-11
Primitive cut-off                           ...     2.500000e-12
Primitive pair pre-selection threshold      ...     2.500000e-12

Calculating pre-screening integrals         ... done (  0.0 sec) Dimension = 75
Calculating pre-screening integrals (ORCA)  ... done (  0.1 sec) Dimension = 62
Organizing shell pair data                  ... done (  0.0 sec)
Shell pair information
Total number of shell pairs                 ...      2850
Shell pairs after pre-screening             ...      2553
Total number of primitive shell pairs       ...      4137
Primitive shell pairs kept                  ...      3334
          la=0 lb=0:    697 shell pairs
          la=1 lb=0:    775 shell pairs
          la=1 lb=1:    225 shell pairs
          la=2 lb=0:    416 shell pairs
          la=2 lb=1:    230 shell pairs
          la=2 lb=2:     66 shell pairs
          la=3 lb=0:     77 shell pairs
          la=3 lb=1:     42 shell pairs
          la=3 lb=2:     22 shell pairs
          la=3 lb=3:      3 shell pairs

Calculating one electron integrals          ... done (  0.0 sec)
Calculating Nuclear repulsion               ... done (  0.0 sec) ENN=     45.773058618684 Eh

SHARK setup successfully completed in   0.3 seconds

Maximum memory used throughout the entire GTOINT-calculation: 38.6 MB

Diagonalization of the overlap matrix:
Smallest eigenvalue                        ... 7.700e-05
Time for diagonalization                   ...    0.007 sec
Threshold for overlap eigenvalues          ... 1.000e-08
Number of eigenvalues below threshold      ... 0
Time for construction of square roots      ...    0.005 sec
Total time needed                          ...    0.012 sec

-------------------
DFT GRID GENERATION
-------------------

General Integration Accuracy     IntAcc      ... 4.388
Radial Grid Type                 RadialGrid  ... OptM3 with GC (2021)
Angular Grid (max. ang.)         AngularGrid ... 4 (Lebedev-302)
Angular grid pruning method      GridPruning ... 4 (adaptive)
Weight generation scheme         WeightScheme... Becke
Basis function cutoff            BFCut       ... 1.0000e-11
Integration weight cutoff        WCut        ... 1.0000e-14
Angular grids for H and He will be reduced by one unit
Partially contracted basis set               ... off
Rotationally invariant grid construction     ... off

Total number of grid points                  ...    21157
Total number of batches                      ...      332
Average number of points per batch           ...       63
Average number of grid points per atom       ...     5289
Time for grid setup =    0.205 sec

--------------
SCF ITERATIONS
--------------
ITER       Energy         Delta-E        Max-DP      RMS-DP      [F,P]     Damp
               ***  Starting incremental Fock matrix formation  ***
  0   -499.2773823328   0.000000000000 0.00312500  0.00008595  0.0216295 0.7000
  1   -499.2783918963  -0.001009563462 0.00295776  0.00007846  0.0162389 0.7000
                               ***Turning on DIIS***
  2   -499.2791867700  -0.000794873746 0.00882152  0.00020671  0.0119060 0.0000
  3   -499.2812770409  -0.002090270884 0.00261194  0.00004322  0.0029936 0.0000
  4   -499.2813575950  -0.000080554079 0.00149883  0.00002050  0.0013774 0.0000
  5   -499.2813823481  -0.000024753150 0.00131670  0.00001991  0.0007742 0.0000
  6   -499.2813905718  -0.000008223689 0.00021079  0.00000353  0.0001684 0.0000
  7   -499.2813909024  -0.000000330597 0.00004999  0.00000113  0.0000785 0.0000
  8   -499.2813909778  -0.000000075371 0.00002248  0.00000038  0.0000226 0.0000
  9   -499.2813909833  -0.000000005505 0.00000541  0.00000014  0.0000081 0.0000
 10   -499.2813909841  -0.000000000828 0.00000187  0.00000004  0.0000016 0.0000
                            ***DIIS convergence achieved***

               *****************************************************
               *                     SUCCESS                       *
               *           SCF CONVERGED AFTER  11 CYCLES          *
               *****************************************************

Total Energy       :         -499.28139098 Eh          -13586.13735 eV
  Last Energy change         ...   -1.0147e-10  Tolerance :   1.0000e-08
  Last MAX-Density change    ...    6.6880e-07  Tolerance :   1.0000e-07
             **** THE GBW FILE WAS UPDATED (C-Cl-H-H_radical_opt.gbw) ****
             **** DENSITY C-Cl-H-H_radical_opt.scfp WAS UPDATED ****
             **** ENERGY FILE WAS UPDATED (C-Cl-H-H_radical_opt.en.tmp) ****
----------------------
[...]
 -----------------------------------------------------------
 Solving for nuclear perturbation:
Forming RHS of the CP-SCF equations         ... 
Calc. nucleus orbit integrals (SHARK)       ... done

------------------------------------------------------------------------------
                           ORCA CP-SCF CALCULATION
------------------------------------------------------------------------------

Input orbitals are from        ... C-Cl-H-H_radical_EPR.gbw
Input Perturbation             ... C-Cl-H-H_radical_EPR.pin.tmp
Wavefunction output            ... C-Cl-H-H_radical_EPR.pout.tmp
Perturbation mode              ... Imaginary perturbation
Solver                         ... POPLE
Max. number of iterations      ... 64
Convergence tolerance          ... 1.000e-03
Integral handling              ... Direct
DFT GridXC                     ... 1
Number of perturbations        ... 3
Number of operators            ... 2
Orbital ranges used for CP-SCF:
 Operator 0:  Orbitals   0... 12  to  13...153
 Operator 1:  Orbitals   0... 11  to  12...153
Variables per perturbation     ... 3537
DFT calculation                         ... on
XC functional terms                     ... off
Hybrid DFT                              ... on
   Exchange mixing (SCF)                ...  0.250
   Exchange mixing (CP-SCF)             ...  0.250
   GGA exch. scaling(SCF)               ...  0.750
   GGA exch. scaling (CP-SCF)           ...  0.750
   GGA corr. scaling (SCF)              ...  1.000
   GGA corr. scaling (CP-SCF)           ...  1.000

CP-SCF GRID
-----------

General Integration Accuracy     IntAcc      ... 3.467
Radial Grid Type                 RadialGrid  ... OptM3 with GC (2021)
Angular Grid (max. ang.)         AngularGrid ... 1 (Lebedev-50)
Angular grid pruning method      GridPruning ... 4 (adaptive)
Weight generation scheme         WeightScheme... Becke
Basis function cutoff            BFCut       ... 1.0000e-11
Integration weight cutoff        WCut        ... 1.0000e-14
Angular grids for H and He will be reduced by one unit
Partially contracted basis set               ... off
Rotationally invariant grid construction     ... off

Total number of grid points                  ...     3183
Total number of batches                      ...       51
Average number of points per batch           ...       62
Average number of grid points per atom       ...      796

Memory available               ... 905.5 MB
Memory needed per perturbation ...   4.2 MB
Perturbations treated per batch... 3
Number of batches              ... 1
     CP-SCF ITERATION   0:   1.3288e+00 (   5.2 sec   0/  3 done)
     CP-SCF ITERATION   1:   6.6706e-02 (   5.1 sec   0/  3 done)
     CP-SCF ITERATION   2:   6.5197e-03 (   5.3 sec   0/  3 done)
     CP-SCF ITERATION   3:   4.9722e-04 (   5.1 sec   3/  3 done)
                    *** THE CP-SCF HAS CONVERGED ***

Forming final perturbed densities           ... done
Transforming perturbed density to AO basis  ... done

 Raw HFC matrix (all values in MHz): 
 -----------------------------------
                17.6717               0.0157              -0.9719
                 0.0159              19.0733              -0.7693
                -0.9719              -0.7692             246.5155

 A(FC)          93.9136              93.9136              93.9136
 A(SD)         -76.2961             -76.2992             152.5953
 A(ORB+DIA)      0.0500               1.4565               0.0133    A(PC) =   0.5066
 A(ORB)          0.0488               1.4556               0.0134    A(PC) =   0.5059
 A(DIA)          0.0012               0.0008              -0.0001    A(PC) =   0.0007
             ----------           ----------           ----------
 A(Tot)         17.6675              19.0708             246.5222    A(iso)=   94.4202
 Orientation: 
  X           0.9999516           -0.0088769            0.0042473
  Y          -0.0088913           -0.9999548            0.0033824
  Z           0.0042170           -0.0034200           -0.9999853

Notes:  (1) The A matrix conforms to the "SAI" spin Hamiltonian convention.
        (2) Tensor is right-handed.

 -----------------------------------------------------------
 Nucleus   2H : A:ISTP=    1 I=  0.5 P=533.5514 MHz/au**3
                Q:ISTP=    2 I=  1.0 Q=  0.0029 barn     
 -----------------------------------------------------------
 Solving for nuclear perturbation:
Forming RHS of the CP-SCF equations         ... 
Calc. nucleus orbit integrals (SHARK)       ... done

------------------------------------------------------------------------------
                           ORCA CP-SCF CALCULATION
------------------------------------------------------------------------------

Input orbitals are from        ... C-Cl-H-H_radical_EPR.gbw
Input Perturbation             ... C-Cl-H-H_radical_EPR.pin.tmp
Wavefunction output            ... C-Cl-H-H_radical_EPR.pout.tmp
Perturbation mode              ... Imaginary perturbation
Solver                         ... POPLE
Max. number of iterations      ... 64
Convergence tolerance          ... 1.000e-03
Integral handling              ... Direct
DFT GridXC                     ... 1
Number of perturbations        ... 3
Number of operators            ... 2
Orbital ranges used for CP-SCF:
 Operator 0:  Orbitals   0... 12  to  13...153
 Operator 1:  Orbitals   0... 11  to  12...153
Variables per perturbation     ... 3537
DFT calculation                         ... on
XC functional terms                     ... off
Hybrid DFT                              ... on
   Exchange mixing (SCF)                ...  0.250
   Exchange mixing (CP-SCF)             ...  0.250
   GGA exch. scaling(SCF)               ...  0.750
   GGA exch. scaling (CP-SCF)           ...  0.750
   GGA corr. scaling (SCF)              ...  1.000
   GGA corr. scaling (CP-SCF)           ...  1.000

CP-SCF GRID
-----------

General Integration Accuracy     IntAcc      ... 3.467
Radial Grid Type                 RadialGrid  ... OptM3 with GC (2021)
Angular Grid (max. ang.)         AngularGrid ... 1 (Lebedev-50)
Angular grid pruning method      GridPruning ... 4 (adaptive)
Weight generation scheme         WeightScheme... Becke
Basis function cutoff            BFCut       ... 1.0000e-11
Integration weight cutoff        WCut        ... 1.0000e-14
Angular grids for H and He will be reduced by one unit
Partially contracted basis set               ... off
Rotationally invariant grid construction     ... off

Total number of grid points                  ...     3183
Total number of batches                      ...       51
Average number of points per batch           ...       62
Average number of grid points per atom       ...      796

Memory available               ... 905.3 MB
Memory needed per perturbation ...   4.2 MB
Perturbations treated per batch... 3
Number of batches              ... 1
     CP-SCF ITERATION   0:   8.1967e-02 (   5.1 sec   0/  3 done)
     CP-SCF ITERATION   1:   4.5796e-03 (   5.2 sec   0/  3 done)
     CP-SCF ITERATION   2:   4.4200e-04 (   5.2 sec   3/  3 done)
                    *** THE CP-SCF HAS CONVERGED ***

Forming final perturbed densities           ... done
Transforming perturbed density to AO basis  ... done

 Raw HFC matrix (all values in MHz): 
 -----------------------------------
               -93.9585              31.4224               0.0033
                31.6045             -51.7728               0.1938
                 0.0039               0.1931             -70.0058

 A(FC)         -72.0540             -72.0540             -72.0540
 A(SD)          36.7628               2.0490             -38.8118
 A(ORB+DIA)      0.3474              -0.0015               0.0790    A(PC) =   0.1416
 A(ORB)          0.3421               0.0006               0.0781    A(PC) =   0.1403
 A(DIA)          0.0053              -0.0021               0.0008    A(PC) =   0.0013
             ----------           ----------           ----------
 A(Tot)        -34.9438             -70.0064            -110.7869    A(iso)=  -71.9124
 Orientation: 
  X           0.4704455           -0.0042367            0.8824189
  Y           0.8824153           -0.0033391           -0.4704595
  Z           0.0049397            0.9999855            0.0021676

Notes:  (1) The A matrix conforms to the "SAI" spin Hamiltonian convention.
        (2) Tensor is right-handed.

 -----------------------------------------------------------
 Nucleus   3H : A:ISTP=    1 I=  0.5 P=533.5514 MHz/au**3
                Q:ISTP=    2 I=  1.0 Q=  0.0029 barn     
 -----------------------------------------------------------
 Solving for nuclear perturbation:
Forming RHS of the CP-SCF equations         ... 
Calc. nucleus orbit integrals (SHARK)       ... done

------------------------------------------------------------------------------
                           ORCA CP-SCF CALCULATION
------------------------------------------------------------------------------

Input orbitals are from        ... C-Cl-H-H_radical_EPR.gbw
Input Perturbation             ... C-Cl-H-H_radical_EPR.pin.tmp
Wavefunction output            ... C-Cl-H-H_radical_EPR.pout.tmp
Perturbation mode              ... Imaginary perturbation
Solver                         ... POPLE
Max. number of iterations      ... 64
Convergence tolerance          ... 1.000e-03
Integral handling              ... Direct
DFT GridXC                     ... 1
Number of perturbations        ... 3
Number of operators            ... 2
Orbital ranges used for CP-SCF:
 Operator 0:  Orbitals   0... 12  to  13...153
 Operator 1:  Orbitals   0... 11  to  12...153
Variables per perturbation     ... 3537
DFT calculation                         ... on
XC functional terms                     ... off
Hybrid DFT                              ... on
   Exchange mixing (SCF)                ...  0.250
   Exchange mixing (CP-SCF)             ...  0.250
   GGA exch. scaling(SCF)               ...  0.750
   GGA exch. scaling (CP-SCF)           ...  0.750
   GGA corr. scaling (SCF)              ...  1.000
   GGA corr. scaling (CP-SCF)           ...  1.000

CP-SCF GRID
-----------

General Integration Accuracy     IntAcc      ... 3.467
Radial Grid Type                 RadialGrid  ... OptM3 with GC (2021)
Angular Grid (max. ang.)         AngularGrid ... 1 (Lebedev-50)
Angular grid pruning method      GridPruning ... 4 (adaptive)
Weight generation scheme         WeightScheme... Becke
Basis function cutoff            BFCut       ... 1.0000e-11
Integration weight cutoff        WCut        ... 1.0000e-14
Angular grids for H and He will be reduced by one unit
Partially contracted basis set               ... off
Rotationally invariant grid construction     ... off

Total number of grid points                  ...     3183
Total number of batches                      ...       51
Average number of points per batch           ...       62
Average number of grid points per atom       ...      796

Memory available               ... 905.3 MB
Memory needed per perturbation ...   4.2 MB
Perturbations treated per batch... 3
Number of batches              ... 1
     CP-SCF ITERATION   0:   8.2126e-02 (   5.2 sec   0/  3 done)
     CP-SCF ITERATION   1:   4.5680e-03 (   5.1 sec   0/  3 done)
     CP-SCF ITERATION   2:   4.4023e-04 (   5.4 sec   3/  3 done)
                    *** THE CP-SCF HAS CONVERGED ***

Forming final perturbed densities           ... done
Transforming perturbed density to AO basis  ... done

 Raw HFC matrix (all values in MHz): 
 -----------------------------------
               -95.1030             -30.6223              -0.2114
               -30.8043             -50.6204              -0.0632
                -0.2120              -0.0624             -70.0057

 A(FC)         -72.0513             -72.0513             -72.0513
 A(SD)          36.7629               2.0482             -38.8111
 A(ORB+DIA)      0.3474              -0.0015               0.0789    A(PC) =   0.1416
 A(ORB)          0.3421               0.0006               0.0781    A(PC) =   0.1403
 A(DIA)          0.0053              -0.0021               0.0008    A(PC) =   0.0013
             ----------           ----------           ----------
 A(Tot)        -34.9410             -70.0046            -110.7835    A(iso)=  -71.9097
 Orientation: 
  X           0.4540606            0.0042379            0.8909607
  Y          -0.8909701            0.0034247            0.4540491
  Z          -0.0011270           -0.9999852            0.0053309

Notes:  (1) The A matrix conforms to the "SAI" spin Hamiltonian convention.
        (2) Tensor is right-handed.

 -----------------------------------------------------------
 Nucleus   1Cl: A:ISTP=   35 I=  1.5 P= 52.3376 MHz/au**3
                Q:ISTP=   35 I=  1.5 Q= -0.0817 barn     
 -----------------------------------------------------------
 Solving for nuclear perturbation:
Forming RHS of the CP-SCF equations         ... 
Calc. nucleus orbit integrals (SHARK)       ... done

------------------------------------------------------------------------------
                           ORCA CP-SCF CALCULATION
------------------------------------------------------------------------------

Input orbitals are from        ... C-Cl-H-H_radical_EPR.gbw
Input Perturbation             ... C-Cl-H-H_radical_EPR.pin.tmp
Wavefunction output            ... C-Cl-H-H_radical_EPR.pout.tmp
Perturbation mode              ... Imaginary perturbation
Solver                         ... POPLE
Max. number of iterations      ... 64
Convergence tolerance          ... 1.000e-03
Integral handling              ... Direct
DFT GridXC                     ... 1
Number of perturbations        ... 3
Number of operators            ... 2
Orbital ranges used for CP-SCF:
 Operator 0:  Orbitals   0... 12  to  13...153
 Operator 1:  Orbitals   0... 11  to  12...153
Variables per perturbation     ... 3537
DFT calculation                         ... on
XC functional terms                     ... off
Hybrid DFT                              ... on
   Exchange mixing (SCF)                ...  0.250
   Exchange mixing (CP-SCF)             ...  0.250
   GGA exch. scaling(SCF)               ...  0.750
   GGA exch. scaling (CP-SCF)           ...  0.750
   GGA corr. scaling (SCF)              ...  1.000
   GGA corr. scaling (CP-SCF)           ...  1.000

CP-SCF GRID
-----------

General Integration Accuracy     IntAcc      ... 3.467
Radial Grid Type                 RadialGrid  ... OptM3 with GC (2021)
Angular Grid (max. ang.)         AngularGrid ... 1 (Lebedev-50)
Angular grid pruning method      GridPruning ... 4 (adaptive)
Weight generation scheme         WeightScheme... Becke
Basis function cutoff            BFCut       ... 1.0000e-11
Integration weight cutoff        WCut        ... 1.0000e-14
Angular grids for H and He will be reduced by one unit
Partially contracted basis set               ... off
Rotationally invariant grid construction     ... off

Total number of grid points                  ...     3183
Total number of batches                      ...       51
Average number of points per batch           ...       62
Average number of grid points per atom       ...      796

Memory available               ... 905.3 MB
Memory needed per perturbation ...   4.2 MB
Perturbations treated per batch... 3
Number of batches              ... 1
     CP-SCF ITERATION   0:   5.1428e+00 (   5.4 sec   0/  3 done)
     CP-SCF ITERATION   1:   3.7779e-01 (   5.1 sec   0/  3 done)
     CP-SCF ITERATION   2:   3.7443e-02 (   5.3 sec   0/  3 done)
     CP-SCF ITERATION   3:   3.8239e-03 (   5.1 sec   1/  3 done)
     CP-SCF ITERATION   4:   2.9911e-04 (   4.4 sec   3/  3 done)
                    *** THE CP-SCF HAS CONVERGED ***

Forming final perturbed densities           ... done
Transforming perturbed density to AO basis  ... done

 Raw HFC matrix (all values in MHz): 
 -----------------------------------
               -29.4103               0.0962              -0.3822
                 0.0962             -18.9942              -0.2706
                -0.3821              -0.2706              61.1233

 A(FC)           4.3961               4.3961               4.3961
 A(SD)         -22.4394             -34.4746              56.9140
 A(ORB+DIA)     -0.9509               0.6657              -0.1843    A(PC) =  -0.1565
 A(ORB)         -0.9510               0.6656              -0.1843    A(PC) =  -0.1566
 A(DIA)          0.0001               0.0001              -0.0000    A(PC) =   0.0001
             ----------           ----------           ----------
 A(Tot)        -18.9942             -29.4128              61.1258    A(iso)=    4.2396
 Orientation: 
  X          -0.0091123            0.9999496           -0.0042246
  Y          -0.9999526           -0.0091266           -0.0033824
  Z          -0.0034208            0.0041936            0.9999854

Notes:  (1) The A matrix conforms to the "SAI" spin Hamiltonian convention.
        (2) Tensor is right-handed.


--------------------------------------------------------------------------------
----------------------------------------------------------------------------
                           ORCA EULER ANGLE PROGRAM
----------------------------------------------------------------------------

Only g-tensor available        -->  using g-tensor as reference tensor

Reference tensor               ...  g

g-tensor ordering              ...  |g_min> --> |gx>
                                    |g_mid> --> |gy>
                                    |g_max> --> |gz>

A- and EFG-tensor ordering     ...  the axes |Ax>, |Qx>, |Ay>, etc. are assigned
                                    such that the Euler rotation is minimal. You
                                    can find the respective eigenvalues as Ax,
                                    EFGx, Ay, etc. in the tables below.
                                    The relation of |Ax>, |Ay>,  etc. to Amin, Amid, etc.
                                    (as printed in the ORCA EPR/NMR CALCULATION Output)
                                    is obtained in the detailed printout.

Euler rotation around          ...  z - y - z
   First rotation              -->  by alpha around z
   Second rotation             -->  by beta around y'
   Third rotation              -->  by gamma around z''
   Positive / Negative angle   -->  clockwise / counterclockwise rotation

Plot EFG-tensors                    (-)
Plot HFC-tensors                    (-)
Detailed Printout                   (-)

-------------------------------------------------------------------------
          Euler rotation of hyperfine tensor to g-tensor
-------------------------------------------------------------------------

-------------------------------------------------------------------
 Atom  |   Alpha    Beta    Gamma   |   Ax       Ay       Az 
       |          [degrees]         |           [MHz]         
-------------------------------------------------------------------
  0C        0.0      0.0      0.0     246.52    17.67    19.07
  2H      -90.0     27.5     90.0     -70.01  -110.79   -34.94
  3H       90.0     27.6    -90.0     -70.00  -110.78   -34.94
  1Cl      -0.0      0.0      0.0      61.13   -29.41   -18.99
-------------------------------------------------------------------


Maximum memory used throughout the entire EPRNMR-calculation: 132.6 MB

Timings for individual modules:

Sum of individual times         ...      172.045 sec (=   2.867 min)
GTO integral calculation        ...        0.337 sec (=   0.006 min)   0.2 %
Spin-Orbit-Coupling Matrices    ...       28.434 sec (=   0.474 min)  16.5 %
SCF iterations                  ...        4.641 sec (=   0.077 min)   2.7 %
EPR/NMR calculation             ...      138.633 sec (=   2.311 min)  80.6 %



                             ****ORCA TERMINATED NORMALLY****
TOTAL RUN TIME: 0 days 0 hours 8 minutes 32 seconds 566 msec

slurmID:    30883859
totalRuntime[s]:    512.605338353
