
                                 *****************
                                 * O   R   C   A *
                                 *****************

                                            #,                                       
                                            ###                                      
                                            ####                                     
                                            #####                                    
                                            ######                                   
                                           ########,                                 
                                     ,,################,,,,,                         
                               ,,#################################,,                 
                          ,,##########################################,,             
                       ,#########################################, ''#####,          
                    ,#############################################,,   '####,        
                  ,##################################################,,,,####,       
                ,###########''''           ''''###############################       
              ,#####''   ,,,,##########,,,,          '''####'''          '####       
            ,##' ,,,,###########################,,,                        '##       
           ' ,,###''''                  '''############,,,                           
         ,,##''                                '''############,,,,        ,,,,,,###''
      ,#''                                            '''#######################'''  
     '                                                          ''''####''''         
             ,#######,   #######,   ,#######,      ##                                
            ,#'     '#,  ##    ##  ,#'     '#,    #''#        ######   ,####,        
            ##       ##  ##   ,#'  ##            #'  '#       #        #'  '#        
            ##       ##  #######   ##           ,######,      #####,   #    #        
            '#,     ,#'  ##    ##  '#,     ,#' ,#      #,         ##   #,  ,#        
             '#######'   ##     ##  '#######'  #'      '#     #####' # '####'        



                  #######################################################
                  #                        -***-                        #
                  #          Department of theory and spectroscopy      #
                  #    Directorship and core code : Frank Neese         #
                  #        Max Planck Institute fuer Kohlenforschung    #
                  #                Kaiser Wilhelm Platz 1               #
                  #                 D-45470 Muelheim/Ruhr               #
                  #                      Germany                        #
                  #                                                     #
                  #                  All rights reserved                #
                  #                        -***-                        #
                  #######################################################


                         Program Version 5.0.4 -  RELEASE  -


 With contributions from (in alphabetic order):
   Daniel Aravena         : Magnetic Suceptibility
   Michael Atanasov       : Ab Initio Ligand Field Theory (pilot matlab implementation)
   Alexander A. Auer      : GIAO ZORA, VPT2 properties, NMR spectrum
   Ute Becker             : Parallelization
   Giovanni Bistoni       : ED, misc. LED, open-shell LED, HFLD
   Martin Brehm           : Molecular dynamics
   Dmytro Bykov           : SCF Hessian
   Vijay G. Chilkuri      : MRCI spin determinant printing, contributions to CSF-ICE
   Dipayan Datta          : RHF DLPNO-CCSD density
   Achintya Kumar Dutta   : EOM-CC, STEOM-CC
   Dmitry Ganyushin       : Spin-Orbit,Spin-Spin,Magnetic field MRCI
   Miquel Garcia          : C-PCM and meta-GGA Hessian, CC/C-PCM, Gaussian charge scheme
   Yang Guo               : DLPNO-NEVPT2, F12-NEVPT2, CIM, IAO-localization
   Andreas Hansen         : Spin unrestricted coupled pair/coupled cluster methods
   Benjamin Helmich-Paris : MC-RPA, TRAH-SCF, COSX integrals
   Lee Huntington         : MR-EOM, pCC
   Robert Izsak           : Overlap fitted RIJCOSX, COSX-SCS-MP3, EOM
   Marcus Kettner         : VPT2
   Christian Kollmar      : KDIIS, OOCD, Brueckner-CCSD(T), CCSD density, CASPT2, CASPT2-K
   Simone Kossmann        : Meta GGA functionals, TD-DFT gradient, OOMP2, MP2 Hessian
   Martin Krupicka        : Initial AUTO-CI
   Lucas Lang             : DCDCAS
   Marvin Lechner         : AUTO-CI (C++ implementation), FIC-MRCC
   Dagmar Lenk            : GEPOL surface, SMD
   Dimitrios Liakos       : Extrapolation schemes; Compound Job, initial MDCI parallelization
   Dimitrios Manganas     : Further ROCIS development; embedding schemes
   Dimitrios Pantazis     : SARC Basis sets
   Anastasios Papadopoulos: AUTO-CI, single reference methods and gradients
   Taras Petrenko         : DFT Hessian,TD-DFT gradient, ASA, ECA, R-Raman, ABS, FL, XAS/XES, NRVS
   Peter Pinski           : DLPNO-MP2, DLPNO-MP2 Gradient
   Christoph Reimann      : Effective Core Potentials
   Marius Retegan         : Local ZFS, SOC
   Christoph Riplinger    : Optimizer, TS searches, QM/MM, DLPNO-CCSD(T), (RO)-DLPNO pert. Triples
   Tobias Risthaus        : Range-separated hybrids, TD-DFT gradient, RPA, STAB
   Michael Roemelt        : Original ROCIS implementation
   Masaaki Saitow         : Open-shell DLPNO-CCSD energy and density
   Barbara Sandhoefer     : DKH picture change effects
   Avijit Sen             : IP-ROCIS
   Kantharuban Sivalingam : CASSCF convergence, NEVPT2, FIC-MRCI
   Bernardo de Souza      : ESD, SOC TD-DFT
   Georgi Stoychev        : AutoAux, RI-MP2 NMR, DLPNO-MP2 response
   Willem Van den Heuvel  : Paramagnetic NMR
   Boris Wezisla          : Elementary symmetry handling
   Frank Wennmohs         : Technical directorship


 We gratefully acknowledge several colleagues who have allowed us to
 interface, adapt or use parts of their codes:
   Stefan Grimme, W. Hujo, H. Kruse, P. Pracht,  : VdW corrections, initial TS optimization,
                  C. Bannwarth, S. Ehlert          DFT functionals, gCP, sTDA/sTD-DF
   Ed Valeev, F. Pavosevic, A. Kumar             : LibInt (2-el integral package), F12 methods
   Garnet Chan, S. Sharma, J. Yang, R. Olivares  : DMRG
   Ulf Ekstrom                                   : XCFun DFT Library
   Mihaly Kallay                                 : mrcc  (arbitrary order and MRCC methods)
   Jiri Pittner, Ondrej Demel                    : Mk-CCSD
   Frank Weinhold                                : gennbo (NPA and NBO analysis)
   Christopher J. Cramer and Donald G. Truhlar   : smd solvation model
   Lars Goerigk                                  : TD-DFT with DH, B97 family of functionals
   V. Asgeirsson, H. Jonsson                     : NEB implementation
   FAccTs GmbH                                   : IRC, NEB, NEB-TS, DLPNO-Multilevel, CI-OPT
                                                   MM, QMMM, 2- and 3-layer-ONIOM, Crystal-QMMM,
                                                   LR-CPCM, SF, NACMEs, symmetry and pop. for TD-DFT,
                                                   nearIR, NL-DFT gradient (VV10), updates on ESD,
                                                   ML-optimized integration grids
   S Lehtola, MJT Oliveira, MAL Marques          : LibXC Library
   Liviu Ungur et al                             : ANISO software


 Your calculation uses the libint2 library for the computation of 2-el integrals
 For citations please refer to: http://libint.valeyev.net

 Your ORCA version has been built with support for libXC version: 5.1.0
 For citations please refer to: https://tddft.org/programs/libxc/

 This ORCA versions uses:
   CBLAS   interface :  Fast vector & matrix operations
   LAPACKE interface :  Fast linear algebra routines
   SCALAPACK package :  Parallel linear algebra routines
   Shared memory     :  Shared parallel matrices
   BLAS/LAPACK       :  OpenBLAS 0.3.15  USE64BITINT DYNAMIC_ARCH NO_AFFINITY SkylakeX SINGLE_THREADED
        Core in use  :  SkylakeX
   Copyright (c) 2011-2014, The OpenBLAS Project


================================================================================

----- Orbital basis set information -----
Your calculation utilizes the basis: aug-cc-pVTZ-J 
  Obtained from the EMSL Basis Set Exchange (bse.pnl.gov) Feb. 2017
  H, C-O : P. F. Provasi, G. A. Aucar, S. P. A. Sauer, J. Chem. Phys. 115, 1324 (2001)
           R. A. Kendall, T. H. Dunning, Jr., R. J. Harrison, J. Chem. Phys. 96, 6796 (1992)
           T. Enevoldsen, J. Oddershede, S. P. A. Sauer, Theor. Chem. Acc. 100, 275 (1998)
           T. H. Dunning, Jr., J. Chem. Phys. 90, 1007 (1989)
       B : P. F. Provasi, S. P. A. Sauer, J. Chem. Phys. 133, 054308 (2010)
           T. Enevoldsen, J. Oddershede, S. P. A. Sauer, Theor. Chem. Acc. 100, 275 (1998)
           T. H. Dunning, Jr., J. Chem. Phys. 90, 1007 (1989)
       F : R. A. Kendall, T. H. Dunning, Jr., R. J. Harrison, J. Chem. Phys. 96, 6796 (1992)
           T. Enevoldsen, J. Oddershede, S. P. A. Sauer, Theor. Chem. Acc. 100, 275 (1998)
           T. H. Dunning, Jr., J. Chem. Phys. 90, 1007 (1989)
           V. Barone, P. F. Provasi, J. E. Peralta, J. P. Snyder, S. P. A. Sauer, R. H. Contreras, J. Phys. Chem. A 107, 4748 (2003)
      Al : D. E. Woon, T. H. Dunning, Jr., J. Chem. Phys. 98, 1358 (1993)
           P. F. Provasi, S. P. A. Sauer, J. Chem. Phys. 133, 054308 (2010)
           T. Enevoldsen, J. Oddershede, S. P. A. Sauer, Theor. Chem. Acc. 100, 275 (1998)
      Si : D. E. Woon, T. H. Dunning, Jr., J. Chem. Phys. 98, 1358 (1993)
           P. F. Provasi, S. P. A. Sauer, J. Chem. Phys. 133, 054308 (2010)
           S. P. A. Sauer, W. T. Raynes, J. Chem. Phys. 113, 3121 (2000)
           S. P. A. Sauer, W. T. Raynes, R. A. Nicholls, J. Chem. Phys. 115, 5994 (2001)
   P, Cl : D. E. Woon, T. H. Dunning, Jr., J. Chem. Phys. 98, 1358 (1993)
           P. F. Provasi, S. P. A. Sauer, J. Chem. Phys. 133, 054308 (2010)
       S : D. E. Woon, T. H. Dunning, Jr., J. Chem. Phys. 98, 1358 (1993)
           P. F. Provasi, G. A. Aucar, S. P. A. Sauer, J. Chem. Phys. 115, 1324 (2001)
   Sc-Zn : E. D. Hedegård, J. Kongsted, S. P. A. Sauer, J. Chem. Theory Comput. 7, 4077 (2011)
           N. B. Balabanov, K. A. Peterson, J. Chem. Phys. 123, 64107 (2005)
      Se : Y. Yu. Rusakov, L. B. Krivdin, S. P. A. Sauer, E. P. Levanova, G. G. Levkovskaya, Magn. Res. Chem. 48, 44-52 (2010)

================================================================================
                                        WARNINGS
                       Please study these warnings very carefully!
================================================================================


WARNING: Geometry Optimization
  ===> : Switching off AutoStart
         For restart on a previous wavefunction, please use MOREAD

INFO   : the flag for use of the SHARK integral package has been found!



***************************************
The coordinates will be read from file: 
***************************************


================================================================================

----- Orbital basis set information -----
Your calculation utilizes the basis: aug-cc-pVTZ-J 
  Obtained from the EMSL Basis Set Exchange (bse.pnl.gov) Feb. 2017
  H, C-O : P. F. Provasi, G. A. Aucar, S. P. A. Sauer, J. Chem. Phys. 115, 1324 (2001)
           R. A. Kendall, T. H. Dunning, Jr., R. J. Harrison, J. Chem. Phys. 96, 6796 (1992)
           T. Enevoldsen, J. Oddershede, S. P. A. Sauer, Theor. Chem. Acc. 100, 275 (1998)
           T. H. Dunning, Jr., J. Chem. Phys. 90, 1007 (1989)
       B : P. F. Provasi, S. P. A. Sauer, J. Chem. Phys. 133, 054308 (2010)
           T. Enevoldsen, J. Oddershede, S. P. A. Sauer, Theor. Chem. Acc. 100, 275 (1998)
           T. H. Dunning, Jr., J. Chem. Phys. 90, 1007 (1989)
       F : R. A. Kendall, T. H. Dunning, Jr., R. J. Harrison, J. Chem. Phys. 96, 6796 (1992)
           T. Enevoldsen, J. Oddershede, S. P. A. Sauer, Theor. Chem. Acc. 100, 275 (1998)
           T. H. Dunning, Jr., J. Chem. Phys. 90, 1007 (1989)
           V. Barone, P. F. Provasi, J. E. Peralta, J. P. Snyder, S. P. A. Sauer, R. H. Contreras, J. Phys. Chem. A 107, 4748 (2003)
      Al : D. E. Woon, T. H. Dunning, Jr., J. Chem. Phys. 98, 1358 (1993)
           P. F. Provasi, S. P. A. Sauer, J. Chem. Phys. 133, 054308 (2010)
           T. Enevoldsen, J. Oddershede, S. P. A. Sauer, Theor. Chem. Acc. 100, 275 (1998)
      Si : D. E. Woon, T. H. Dunning, Jr., J. Chem. Phys. 98, 1358 (1993)
           P. F. Provasi, S. P. A. Sauer, J. Chem. Phys. 133, 054308 (2010)
           S. P. A. Sauer, W. T. Raynes, J. Chem. Phys. 113, 3121 (2000)
           S. P. A. Sauer, W. T. Raynes, R. A. Nicholls, J. Chem. Phys. 115, 5994 (2001)
   P, Cl : D. E. Woon, T. H. Dunning, Jr., J. Chem. Phys. 98, 1358 (1993)
           P. F. Provasi, S. P. A. Sauer, J. Chem. Phys. 133, 054308 (2010)
       S : D. E. Woon, T. H. Dunning, Jr., J. Chem. Phys. 98, 1358 (1993)
           P. F. Provasi, G. A. Aucar, S. P. A. Sauer, J. Chem. Phys. 115, 1324 (2001)
   Sc-Zn : E. D. Hedegård, J. Kongsted, S. P. A. Sauer, J. Chem. Theory Comput. 7, 4077 (2011)
           N. B. Balabanov, K. A. Peterson, J. Chem. Phys. 123, 64107 (2005)
      Se : Y. Yu. Rusakov, L. B. Krivdin, S. P. A. Sauer, E. P. Levanova, G. G. Levkovskaya, Magn. Res. Chem. 48, 44-52 (2010)

================================================================================
                                        WARNINGS
                       Please study these warnings very carefully!
================================================================================


INFO   : the flag for use of the SHARK integral package has been found!

================================================================================
                                       INPUT FILE
================================================================================
NAME = /beegfs/scratch/jdstates/Radical_Geometry/CX3_geometry_calcs/input_files/CX3_radical/C-F-F-F_radical_IN-PROGRESS/C-F-F-F_radical.inp
|  1> # Formula: C-F-F-F_radical
|  2> 
|  3> ! UKS NORI TightSCF PBE0 aug-cc-PVTZ-J xyzfile opt NOPOP
|  4> %base "C-F-F-F_radical_opt" 
|  5> 
|  6> * xyz 0 2
|  7> C	-0.005	-0.010	0.351
|  8> F	-0.767	-1.057	-0.119
|  9> F	-0.519	1.180	-0.115
| 10> F	1.291	-0.113	-0.116
| 11> *
| 12> 
| 13> $new_job
| 14> ! UKS NORI PBE0 aug-cc-PVTZ-J NBO
| 15> %base "C-F-F-F_radical_EPR"
| 16> 
| 17> *xyzfile 0 2
| 18> 
| 19> %EPRNMR
| 20> 	GTENSOR		TRUE
| 21> 	NUCLEI		= ALL C  {AISO, ADIP, AORB}
| 22> 	NUCLEI		= ALL H  {AISO, ADIP, AORB}
| 23> 	NUCLEI		= ALL F  {AISO, ADIP, AORB}
| 24> 	NUCLEI		= ALL Cl {AISO, ADIP, AORB}
| 25> 	NUCLEI		= ALL Br {AISO, ADIP, AORB}
| 26> 	NUCLEI		= ALL I  {AISO, ADIP, AORB}
| 27> END
| 28> 
| 29> %NBO
| 30> 	NBOKEYLIST = "$NBO NBO NPA AONBO=C PRINT=1 ARCHIVE $END"
| 31> END
| 32> 
| 33>                          ****END OF INPUT****
================================================================================


                 $$$$$$$$$$$$$$$$$$$$$$$$$$$$$$$$$$$$$$$$$$$$$$ 
                 $ THERE ARE  2 JOBS TO BE PROCESSED THIS RUN $
                 $$$$$$$$$$$$$$$$$$$$$$$$$$$$$$$$$$$$$$$$$$$$$$ 




                 $$$$$$$$$$$$$$$$  JOB NUMBER  1 $$$$$$$$$$$$$$


                       *****************************
                       * Geometry Optimization Run *
                       *****************************

Geometry optimization settings:
Update method            Update   .... BFGS
Choice of coordinates    CoordSys .... Z-matrix Internals
Initial Hessian          InHess   .... Almoef's Model

Convergence Tolerances:
Energy Change            TolE     ....  5.0000e-06 Eh
Max. Gradient            TolMAXG  ....  3.0000e-04 Eh/bohr
RMS Gradient             TolRMSG  ....  1.0000e-04 Eh/bohr
Max. Displacement        TolMAXD  ....  4.0000e-03 bohr
RMS Displacement         TolRMSD  ....  2.0000e-03 bohr
Strict Convergence                ....  False
------------------------------------------------------------------------------
                        ORCA OPTIMIZATION COORDINATE SETUP
------------------------------------------------------------------------------

The optimization will be done in new redundant internal coordinates
Making redundant internal coordinates   ...  (new redundants) done
Evaluating the initial hessian          ...  (Almloef) done
Evaluating the coordinates              ...  done
Calculating the B-matrix                .... done
Calculating the G-matrix                .... done
Diagonalizing the G-matrix              .... done
The first mode is                       ....    1
The number of degrees of freedom        ....    6

    -----------------------------------------------------------------
                    Redundant Internal Coordinates


    -----------------------------------------------------------------
         Definition                    Initial Value    Approx d2E/dq
    -----------------------------------------------------------------
      1. B(F   1,C   0)                  1.3776         0.544210   
      2. B(F   2,C   0)                  1.3775         0.544429   
      3. B(F   3,C   0)                  1.3814         0.536611   
      4. A(F   1,C   0,F   3)          110.2998         0.404389   
      5. A(F   2,C   0,F   3)          107.4648         0.404417   
      6. A(F   1,C   0,F   2)          109.5580         0.405423   
      7. I(F   1,F   3,F   2,C   0)    -54.8139         0.009165   
    -----------------------------------------------------------------

Number of atoms                         .... 4
Number of degrees of freedom            .... 7

         *************************************************************
         *                GEOMETRY OPTIMIZATION CYCLE   1            *
         *************************************************************
---------------------------------
CARTESIAN COORDINATES (ANGSTROEM)
---------------------------------
  C     -0.005000   -0.010000    0.351000
  F     -0.767000   -1.057000   -0.119000
  F     -0.519000    1.180000   -0.115000
  F      1.291000   -0.113000   -0.116000

----------------------------
CARTESIAN COORDINATES (A.U.)
----------------------------
  NO LB      ZA    FRAG     MASS         X           Y           Z
   0 C     6.0000    0    12.011   -0.009449   -0.018897    0.663294
   1 F     9.0000    0    18.998   -1.449420   -1.997441   -0.224877
   2 F     9.0000    0    18.998   -0.980768    2.229877   -0.217319
   3 F     9.0000    0    18.998    2.439636   -0.213539   -0.219208

--------------------------------
INTERNAL COORDINATES (ANGSTROEM)
--------------------------------
 C      0   0   0     0.000000000000     0.00000000     0.00000000
 F      1   0   0     1.377589561517     0.00000000     0.00000000
 F      1   2   0     1.377480308389   109.55796321     0.00000000
 F      1   2   3     1.381417388048   110.29978731   241.90072090

---------------------------
INTERNAL COORDINATES (A.U.)
---------------------------
 C      0   0   0     0.000000000000     0.00000000     0.00000000
 F      1   0   0     2.603266996215     0.00000000     0.00000000
 F      1   2   0     2.603060537725   109.55796321     0.00000000
 F      1   2   3     2.610500540047   110.29978731   241.90072090

---------------------
BASIS SET INFORMATION
---------------------
There are 2 groups of distinct atoms

 Group   1 Type C   : 15s6p3d1f contracted to 9s5p3d1f pattern {711111111/21111/111/1}
 Group   2 Type F   : 15s6p3d1f contracted to 9s5p3d1f pattern {711111111/21111/111/1}

Atom   0C    basis set group =>   1
Atom   1F    basis set group =>   2
Atom   2F    basis set group =>   2
Atom   3F    basis set group =>   2
------------------------------------------------------------------------------
                           ORCA GTO INTEGRAL CALCULATION
------------------------------------------------------------------------------
------------------------------------------------------------------------------
                   ___                                                        
                  /   \      - P O W E R E D   B Y -                         
                 /     \                                                     
                 |  |  |   _    _      __       _____    __    __             
                 |  |  |  | |  | |    /  \     |  _  \  |  |  /  |          
                  \  \/   | |  | |   /    \    | | | |  |  | /  /          
                 / \  \   | |__| |  /  /\  \   | |_| |  |  |/  /          
                |  |  |   |  __  | /  /__\  \  |    /   |      \           
                |  |  |   | |  | | |   __   |  |    \   |  |\   \          
                \     /   | |  | | |  |  |  |  | |\  \  |  | \   \       
                 \___/    |_|  |_| |__|  |__|  |_| \__\ |__|  \__/        
                                                                              
                      - O R C A' S   B I G   F R I E N D -                    
                                      &                                       
                       - I N T E G R A L  F E E D E R -                       
                                                                              
 v1 FN, 2020, v2 2021                                                         
------------------------------------------------------------------------------


Reading SHARK input file C-F-F-F_radical_opt.SHARKINP.tmp ... ok
----------------------
SHARK INTEGRAL PACKAGE
----------------------

Number of atoms                             ...      4
Number of basis functions                   ...    184
Number of shells                            ...     72
Maximum angular momentum                    ...      3
Integral batch strategy                     ... SHARK/LIBINT Hybrid
RI-J (if used) integral strategy            ... SPLIT-RIJ (Revised 2003 algorithm where possible)
Printlevel                                  ...      1
Contraction scheme used                     ... SEGMENTED contraction
Coulomb Range Separation                    ... NOT USED
Exchange Range Separation                   ... NOT USED
Finite Nucleus Model                        ... NOT USED
Auxiliary Coulomb fitting basis             ... NOT available
Auxiliary J/K fitting basis                 ... NOT available
Auxiliary Correlation fitting basis         ... NOT available
Auxiliary 'external' fitting basis          ... NOT available
Integral threshold                          ...     2.500000e-11
Primitive cut-off                           ...     2.500000e-12
Primitive pair pre-selection threshold      ...     2.500000e-12

Calculating pre-screening integrals         ... done (  0.0 sec) Dimension = 72
Organizing shell pair data                  ... done (  0.0 sec)
Shell pair information
Total number of shell pairs                 ...      2628
Shell pairs after pre-screening             ...      2317
Total number of primitive shell pairs       ...      5138
Primitive shell pairs kept                  ...      3891
          la=0 lb=0:    501 shell pairs
          la=1 lb=0:    639 shell pairs
          la=1 lb=1:    201 shell pairs
          la=2 lb=0:    402 shell pairs
          la=2 lb=1:    234 shell pairs
          la=2 lb=2:     78 shell pairs
          la=3 lb=0:    124 shell pairs
          la=3 lb=1:     80 shell pairs
          la=3 lb=2:     48 shell pairs
          la=3 lb=3:     10 shell pairs

Calculating one electron integrals          ... done (  0.0 sec)
Calculating Nuclear repulsion               ... done (  0.0 sec) ENN=    119.418758881469 Eh

SHARK setup successfully completed in   0.2 seconds

Maximum memory used throughout the entire GTOINT-calculation: 31.6 MB
-------------------------------------------------------------------------------
                                 ORCA SCF
-------------------------------------------------------------------------------

------------
SCF SETTINGS
------------
Hamiltonian:
 Density Functional     Method          .... DFT(GTOs)
 Exchange Functional    Exchange        .... PBE
   PBE kappa parameter   XKappa         ....  0.804000
   PBE mue parameter    XMuePBE         ....  0.219520
 Correlation Functional Correlation     .... PBE
   PBE beta parameter  CBetaPBE         ....  0.066725
 LDA part of GGA corr.  LDAOpt          .... PW91-LDA
 Gradients option       PostSCFGGA      .... off
 Hybrid DFT is turned on
   Fraction HF Exchange ScalHFX         ....  0.250000
   Scaling of DF-GGA-X  ScalDFX         ....  0.750000
   Scaling of DF-GGA-C  ScalDFC         ....  1.000000
   Scaling of DF-LDA-C  ScalLDAC        ....  1.000000
   Perturbative correction              ....  0.000000
   Density functional embedding theory  .... OFF
   NL short-range parameter             ....  6.900000


General Settings:
 Integral files         IntName         .... C-F-F-F_radical_opt
 Hartree-Fock type      HFTyp           .... UHF
 Total Charge           Charge          ....    0
 Multiplicity           Mult            ....    2
 Number of Electrons    NEL             ....   33
 Basis Dimension        Dim             ....  184
 Nuclear Repulsion      ENuc            ....    119.4187588815 Eh

Convergence Acceleration:
 DIIS                   CNVDIIS         .... on
   Start iteration      DIISMaxIt       ....    12
   Startup error        DIISStart       ....  0.200000
   # of expansion vecs  DIISMaxEq       ....     5
   Bias factor          DIISBfac        ....   1.050
   Max. coefficient     DIISMaxC        ....  10.000
 Trust-Rad. Augm. Hess. CNVTRAH         .... auto
   Auto Start mean grad. ratio tolernc. ....  1.125000
   Auto Start start iteration           ....    20
   Auto Start num. interpolation iter.  ....    10
   Max. Number of Micro iterations      ....    16
   Max. Number of Macro iterations      .... Maxiter - #DIIS iter
   Number of Davidson start vectors     ....     2
   Converg. threshold I  (grad. norm)   ....   1.000e-05
   Converg. threshold II (energy diff.) ....   1.000e-08
   Grad. Scal. Fac. for Micro threshold ....   0.100
   Minimum threshold for Micro iter.    ....   0.010
   NR start threshold (gradient norm)   ....   0.001
   Initial trust radius                 ....   0.400
   Minimum AH scaling param. (alpha)    ....   1.000
   Maximum AH scaling param. (alpha)    .... 1000.000
   Orbital update algorithm             .... Taylor
   White noise on init. David. guess    .... on
   Maximum white noise                  ....   0.010
   Quad. conv. algorithm                .... NR
 SOSCF                  CNVSOSCF        .... off
 Level Shifting         CNVShift        .... on
   Level shift para.    LevelShift      ....    0.2500
   Turn off err/grad.   ShiftErr        ....    0.0010
 Zerner damping         CNVZerner       .... off
 Static damping         CNVDamp         .... on
   Fraction old density DampFac         ....    0.7000
   Max. Damping (<1)    DampMax         ....    0.9800
   Min. Damping (>=0)   DampMin         ....    0.0000
   Turn off err/grad.   DampErr         ....    0.1000
 Fernandez-Rico         CNVRico         .... off

SCF Procedure:
 Maximum # iterations   MaxIter         ....   125
 SCF integral mode      SCFMode         .... Direct
   Integral package                     .... SHARK and LIBINT hybrid scheme
 Reset frequency        DirectResetFreq ....    20
 Integral Threshold     Thresh          ....  2.500e-11 Eh
 Primitive CutOff       TCut            ....  2.500e-12 Eh

Convergence Tolerance:
 Convergence Check Mode ConvCheckMode   .... Total+1el-Energy
 Convergence forced     ConvForced      .... 0
 Energy Change          TolE            ....  1.000e-08 Eh
 1-El. energy change                    ....  1.000e-05 Eh
 DIIS Error             TolErr          ....  5.000e-07


Diagonalization of the overlap matrix:
Smallest eigenvalue                        ... 7.478e-04
Time for diagonalization                   ...    0.010 sec
Threshold for overlap eigenvalues          ... 1.000e-08
Number of eigenvalues below threshold      ... 0
Time for construction of square roots      ...    0.004 sec
Total time needed                          ...    0.014 sec

Time for model grid setup =    0.075 sec

------------------------------
INITIAL GUESS: MODEL POTENTIAL
------------------------------
Loading Hartree-Fock densities                     ... done
Calculating cut-offs                               ... done
Initializing the effective Hamiltonian             ... done
Setting up the integral package (SHARK)            ... done
Starting the Coulomb interaction                   ... done (   0.1 sec)
Reading the grid                                   ... done
Mapping shells                                     ... done
Starting the XC term evaluation                    ... done (   0.1 sec)
  promolecular density results
     # of electrons  =     33.000052087
     EX              =    -35.029904859
     EC              =     -1.135615855
     EX+EC           =    -36.165520714
Transforming the Hamiltonian                       ... done (   0.0 sec)
Diagonalizing the Hamiltonian                      ... done (   0.0 sec)
Back transforming the eigenvectors                 ... done (   0.0 sec)
Now organizing SCF variables                       ... done
                      ------------------
                      INITIAL GUESS DONE (   0.2 sec)
                      ------------------
-------------------
DFT GRID GENERATION
-------------------

General Integration Accuracy     IntAcc      ... 4.388
Radial Grid Type                 RadialGrid  ... OptM3 with GC (2021)
Angular Grid (max. ang.)         AngularGrid ... 4 (Lebedev-302)
Angular grid pruning method      GridPruning ... 4 (adaptive)
Weight generation scheme         WeightScheme... Becke
Basis function cutoff            BFCut       ... 1.0000e-11
Integration weight cutoff        WCut        ... 1.0000e-14
Angular grids for H and He will be reduced by one unit
Partially contracted basis set               ... off
Rotationally invariant grid construction     ... off

Total number of grid points                  ...    25775
Total number of batches                      ...      406
Average number of points per batch           ...       63
Average number of grid points per atom       ...     6444
Time for grid setup =    0.245 sec

--------------
SCF ITERATIONS
--------------
ITER       Energy         Delta-E        Max-DP      RMS-DP      [F,P]     Damp
               ***  Starting incremental Fock matrix formation  ***
  0   -337.3036466491   0.000000000000 0.02597441  0.00033028  0.0828606 0.7000
  1   -337.3351062069  -0.031459557891 0.01632450  0.00019712  0.0563531 0.7000
                               ***Turning on DIIS***
  2   -337.3458138409  -0.010707633930 0.02405412  0.00030699  0.0388487 0.0000
  3   -337.3683438356  -0.022529994764 0.01458667  0.00014927  0.0134061 0.0000
  4   -337.3707480388  -0.002404203151 0.00421309  0.00005383  0.0062502 0.0000
  5   -337.3712570065  -0.000508967728 0.00254993  0.00002665  0.0020922 0.0000
  6   -337.3713157068  -0.000058700233 0.00175733  0.00002340  0.0007296 0.0000
  7   -337.3713337999  -0.000018093103 0.00035595  0.00000500  0.0001892 0.0000
  8   -337.3713348757  -0.000001075804 0.00005507  0.00000095  0.0000908 0.0000
  9   -337.3713349215  -0.000000045836 0.00002275  0.00000051  0.0000930 0.0000
 10   -337.3713349590  -0.000000037472 0.00001478  0.00000020  0.0000224 0.0000
 11   -337.3713349632  -0.000000004241 0.00000623  0.00000007  0.0000071 0.0000
 12   -337.3713349633  -0.000000000122 0.00000204  0.00000003  0.0000046 0.0000
                 **** Energy Check signals convergence ****

               *****************************************************
               *                     SUCCESS                       *
               *           SCF CONVERGED AFTER  13 CYCLES          *
               *****************************************************


----------------
TOTAL SCF ENERGY
----------------

Total Energy       :         -337.37133496 Eh           -9180.34074 eV

Components:
Nuclear Repulsion  :          119.41875888 Eh            3249.54963 eV
Electronic Energy  :         -456.79009384 Eh          -12429.89038 eV
One Electron Energy:         -705.71507455 Eh          -19203.48346 eV
Two Electron Energy:          248.92498070 Eh            6773.59309 eV

Virial components:
Potential Energy   :         -673.30017399 Eh          -18321.42918 eV
Kinetic Energy     :          335.92883903 Eh            9141.08843 eV
Virial Ratio       :            2.00429405


DFT components:
N(Alpha)           :       16.999970979273 electrons
N(Beta)            :       15.999978613164 electrons
N(Total)           :       32.999949592437 electrons
E(X)               :      -26.418119974072 Eh       
E(C)               :       -1.129828424464 Eh       
E(XC)              :      -27.547948398537 Eh       
DFET-embed. en.    :        0.000000000000 Eh       

---------------
SCF CONVERGENCE
---------------

  Last Energy change         ...    2.8666e-10  Tolerance :   1.0000e-08
  Last MAX-Density change    ...    1.0596e-06  Tolerance :   1.0000e-07
  Last RMS-Density change    ...    2.0461e-08  Tolerance :   5.0000e-09
  Last DIIS Error            ...    8.2438e-07  Tolerance :   5.0000e-07

             **** THE GBW FILE WAS UPDATED (C-F-F-F_radical_opt.gbw) ****
             **** DENSITY C-F-F-F_radical_opt.scfp WAS UPDATED ****
             **** ENERGY FILE WAS UPDATED (C-F-F-F_radical_opt.en.tmp) ****
----------------------
UHF SPIN CONTAMINATION
----------------------

Warning: in a DFT calculation there is little theoretical justification to 
         calculate <S**2> as in Hartree-Fock theory. We will do it anyways
         but you should keep in mind that the values have only limited relevance

Expectation value of <S**2>     :     0.752214
Ideal value S*(S+1) for S=0.5   :     0.750000
Deviation                       :     0.002214

             **** THE GBW FILE WAS UPDATED (C-F-F-F_radical_opt.gbw) ****
             **** DENSITY C-F-F-F_radical_opt.scfp WAS UPDATED ****
----------------
ORBITAL ENERGIES
----------------
                 SPIN UP ORBITALS
  NO   OCC          E(Eh)            E(eV) 
   0   1.0000     -24.845789      -676.0883 
   1   1.0000     -24.842645      -676.0027 
   2   1.0000     -24.842290      -675.9931 
   3   1.0000     -10.517060      -286.1837 
   4   1.0000      -1.357653       -36.9436 
   5   1.0000      -1.286495       -35.0073 
   6   1.0000      -1.282071       -34.8869 
   7   1.0000      -0.752099       -20.4656 
   8   1.0000      -0.632727       -17.2174 
   9   1.0000      -0.629777       -17.1371 
  10   1.0000      -0.595160       -16.1951 
  11   1.0000      -0.515568       -14.0293 
  12   1.0000      -0.513488       -13.9727 
  13   1.0000      -0.483682       -13.1617 
  14   1.0000      -0.480967       -13.0878 
  15   1.0000      -0.462165       -12.5761 
  16   1.0000      -0.333975        -9.0879 
  17   0.0000       0.021193         0.5767 
  18   0.0000       0.039432         1.0730 
  19   0.0000       0.040466         1.1011 
  20   0.0000       0.043495         1.1836 
  21   0.0000       0.111699         3.0395 
  22   0.0000       0.118328         3.2199 
  23   0.0000       0.128678         3.5015 
  24   0.0000       0.141063         3.8385 
  25   0.0000       0.141581         3.8526 
  26   0.0000       0.154224         4.1967 
  27   0.0000       0.154476         4.2035 
  28   0.0000       0.172943         4.7060 
  29   0.0000       0.202222         5.5027 
  30   0.0000       0.233042         6.3414 
  31   0.0000       0.233494         6.3537 
  32   0.0000       0.234798         6.3892 
  33   0.0000       0.268579         7.3084 
  34   0.0000       0.293596         7.9892 
  35   0.0000       0.294531         8.0146 
  36   0.0000       0.298756         8.1296 
  37   0.0000       0.352404         9.5894 
  38   0.0000       0.353082         9.6079 
  39   0.0000       0.407782        11.0963 
  40   0.0000       0.410072        11.1586 
  41   0.0000       0.445323        12.1179 
  42   0.0000       0.555451        15.1146 
  43   0.0000       0.557891        15.1810 
  44   0.0000       0.618773        16.8377 
  45   0.0000       0.737882        20.0788 
  46   0.0000       0.760690        20.6994 
  47   0.0000       0.762072        20.7370 
  48   0.0000       0.801269        21.8036 
  49   0.0000       0.809709        22.0333 
  50   0.0000       0.865794        23.5595 
  51   0.0000       0.873486        23.7688 
  52   0.0000       0.911001        24.7896 
  53   0.0000       0.916020        24.9262 
  54   0.0000       0.921857        25.0850 
  55   0.0000       0.923461        25.1287 
  56   0.0000       0.923822        25.1385 
  57   0.0000       0.952681        25.9238 
  58   0.0000       1.006562        27.3899 
  59   0.0000       1.008633        27.4463 
  60   0.0000       1.034063        28.1383 
  61   0.0000       1.038398        28.2562 
  62   0.0000       1.039880        28.2966 
  63   0.0000       1.092615        29.7316 
  64   0.0000       1.094250        29.7761 
  65   0.0000       1.267828        34.4994 
  66   0.0000       1.277527        34.7633 
  67   0.0000       1.279552        34.8184 
  68   0.0000       1.366855        37.1940 
  69   0.0000       1.413672        38.4680 
  70   0.0000       1.415598        38.5204 
  71   0.0000       1.422497        38.7081 
  72   0.0000       1.489684        40.5364 
  73   0.0000       1.493171        40.6313 
  74   0.0000       1.734217        47.1904 
  75   0.0000       1.798466        48.9387 
  76   0.0000       1.818025        49.4710 
  77   0.0000       2.089476        56.8575 
  78   0.0000       2.361216        64.2519 
  79   0.0000       2.362566        64.2887 
  80   0.0000       2.376193        64.6595 
  81   0.0000       2.380023        64.7637 
  82   0.0000       2.412600        65.6502 
  83   0.0000       2.413065        65.6628 
  84   0.0000       2.517348        68.5005 
  85   0.0000       2.528457        68.8028 
  86   0.0000       2.575205        70.0749 
  87   0.0000       2.591164        70.5092 
  88   0.0000       2.594383        70.5968 
  89   0.0000       2.626310        71.4655 
  90   0.0000       2.629383        71.5492 
  91   0.0000       2.635947        71.7278 
  92   0.0000       2.734606        74.4124 
  93   0.0000       2.951703        80.3199 
  94   0.0000       3.020691        82.1972 
  95   0.0000       3.037665        82.6591 
  96   0.0000       3.168971        86.2321 
  97   0.0000       3.218026        87.5669 
  98   0.0000       3.226435        87.7958 
  99   0.0000       3.271189        89.0136 
 100   0.0000       3.374515        91.8252 
 101   0.0000       3.385549        92.1255 
 102   0.0000       3.489720        94.9601 
 103   0.0000       3.511001        95.5392 
 104   0.0000       3.522587        95.8545 
 105   0.0000       3.540003        96.3284 
 106   0.0000       3.544342        96.4464 
 107   0.0000       3.767073       102.5073 
 108   0.0000       4.513167       122.8095 
 109   0.0000       4.533957       123.3752 
 110   0.0000       4.546648       123.7206 
 111   0.0000       4.645798       126.4186 
 112   0.0000       4.654849       126.6649 
 113   0.0000       4.660601       126.8214 
 114   0.0000       5.467863       148.7881 
 115   0.0000       5.479302       149.0994 
 116   0.0000       5.555482       151.1724 
 117   0.0000       6.378966       173.5805 
 118   0.0000       6.448971       175.4854 
 119   0.0000       6.466720       175.9684 
 120   0.0000       6.824709       185.7098 
 121   0.0000       6.826446       185.7570 
 122   0.0000       6.828071       185.8013 
 123   0.0000       6.831382       185.8913 
 124   0.0000       6.832696       185.9271 
 125   0.0000       6.846486       186.3024 
 126   0.0000       6.849967       186.3971 
 127   0.0000       6.859347       186.6523 
 128   0.0000       6.864744       186.7992 
 129   0.0000       6.951731       189.1662 
 130   0.0000       6.952917       189.1985 
 131   0.0000       7.032125       191.3539 
 132   0.0000       7.220630       196.4833 
 133   0.0000       7.234259       196.8542 
 134   0.0000       7.250063       197.2842 
 135   0.0000       7.380866       200.8436 
 136   0.0000       7.392358       201.1563 
 137   0.0000       7.563598       205.8160 
 138   0.0000       7.573273       206.0792 
 139   0.0000       7.581971       206.3159 
 140   0.0000       7.739910       210.6137 
 141   0.0000       8.686143       236.3620 
 142   0.0000       8.703825       236.8431 
 143   0.0000       8.704361       236.8577 
 144   0.0000       8.706227       236.9085 
 145   0.0000       8.726970       237.4729 
 146   0.0000       8.728267       237.5082 
 147   0.0000       8.770636       238.6611 
 148   0.0000       8.879831       241.6325 
 149   0.0000       8.882574       241.7071 
 150   0.0000       8.897180       242.1046 
 151   0.0000       8.902400       242.2466 
 152   0.0000       8.910132       242.4570 
 153   0.0000       8.914798       242.5840 
 154   0.0000       9.063155       246.6210 
 155   0.0000       9.086561       247.2579 
 156   0.0000       9.254103       251.8169 
 157   0.0000       9.820610       267.2324 
 158   0.0000       9.847210       267.9562 
 159   0.0000      12.035849       327.5121 
 160   0.0000      20.121311       547.5287 
 161   0.0000      20.126973       547.6828 
 162   0.0000      20.131921       547.8174 
 163   0.0000      20.182144       549.1841 
 164   0.0000      20.201776       549.7183 
 165   0.0000      20.206229       549.8394 
 166   0.0000      20.821741       566.5884 
 167   0.0000      20.833694       566.9136 
 168   0.0000      20.899264       568.6979 
 169   0.0000      27.355062       744.3691 
 170   0.0000      27.430302       746.4165 
 171   0.0000      27.448104       746.9009 
 172   0.0000      46.340973      1261.0020 
 173   0.0000     109.243610      2972.6698 
 174   0.0000     109.298779      2974.1710 
 175   0.0000     109.314591      2974.6012 
 176   0.0000     170.599482      4642.2479 
 177   0.0000     404.538119     11008.0419 
 178   0.0000     404.584207     11009.2960 
 179   0.0000     404.598629     11009.6884 
 180   0.0000     800.009620     21769.3685 
 181   0.0000    1899.479351     51687.4609 
 182   0.0000    1899.528951     51688.8106 
 183   0.0000    1899.544608     51689.2366 

                 SPIN DOWN ORBITALS
  NO   OCC          E(Eh)            E(eV) 
   0   1.0000     -24.842037      -675.9862 
   1   1.0000     -24.839030      -675.9044 
   2   1.0000     -24.838630      -675.8935 
   3   1.0000     -10.499040      -285.6934 
   4   1.0000      -1.347763       -36.6745 
   5   1.0000      -1.277592       -34.7651 
   6   1.0000      -1.273326       -34.6489 
   7   1.0000      -0.730973       -19.8908 
   8   1.0000      -0.621534       -16.9128 
   9   1.0000      -0.618764       -16.8374 
  10   1.0000      -0.556215       -15.1354 
  11   1.0000      -0.504832       -13.7372 
  12   1.0000      -0.502929       -13.6854 
  13   1.0000      -0.476225       -12.9587 
  14   1.0000      -0.473360       -12.8808 
  15   1.0000      -0.459267       -12.4973 
  16   0.0000      -0.129514        -3.5243 
  17   0.0000       0.031541         0.8583 
  18   0.0000       0.044735         1.2173 
  19   0.0000       0.045214         1.2303 
  20   0.0000       0.053795         1.4638 
  21   0.0000       0.134661         3.6643 
  22   0.0000       0.137242         3.7345 
  23   0.0000       0.140730         3.8295 
  24   0.0000       0.147681         4.0186 
  25   0.0000       0.148917         4.0522 
  26   0.0000       0.158969         4.3258 
  27   0.0000       0.162149         4.4123 
  28   0.0000       0.177211         4.8222 
  29   0.0000       0.211503         5.7553 
  30   0.0000       0.235131         6.3982 
  31   0.0000       0.235551         6.4097 
  32   0.0000       0.235753         6.4152 
  33   0.0000       0.274837         7.4787 
  34   0.0000       0.303238         8.2515 
  35   0.0000       0.304085         8.2746 
  36   0.0000       0.313814         8.5393 
  37   0.0000       0.355731         9.6799 
  38   0.0000       0.356748         9.7076 
  39   0.0000       0.415201        11.2982 
  40   0.0000       0.417591        11.3632 
  41   0.0000       0.469488        12.7754 
  42   0.0000       0.560673        15.2567 
  43   0.0000       0.562964        15.3190 
  44   0.0000       0.630862        17.1666 
  45   0.0000       0.743492        20.2314 
  46   0.0000       0.767693        20.8900 
  47   0.0000       0.768736        20.9184 
  48   0.0000       0.804949        21.9038 
  49   0.0000       0.813548        22.1378 
  50   0.0000       0.866364        23.5750 
  51   0.0000       0.897837        24.4314 
  52   0.0000       0.913933        24.8694 
  53   0.0000       0.916990        24.9526 
  54   0.0000       0.924778        25.1645 
  55   0.0000       0.925400        25.1814 
  56   0.0000       0.925905        25.1951 
  57   0.0000       0.977156        26.5898 
  58   0.0000       1.015577        27.6352 
  59   0.0000       1.018197        27.7066 
  60   0.0000       1.038569        28.2609 
  61   0.0000       1.045187        28.4410 
  62   0.0000       1.046298        28.4712 
  63   0.0000       1.103400        30.0250 
  64   0.0000       1.104735        30.0614 
  65   0.0000       1.274711        34.6866 
  66   0.0000       1.295826        35.2612 
  67   0.0000       1.297877        35.3170 
  68   0.0000       1.393426        37.9170 
  69   0.0000       1.418728        38.6056 
  70   0.0000       1.426879        38.8273 
  71   0.0000       1.428285        38.8656 
  72   0.0000       1.502778        40.8927 
  73   0.0000       1.506346        40.9898 
  74   0.0000       1.738623        47.3104 
  75   0.0000       1.803127        49.0656 
  76   0.0000       1.822746        49.5995 
  77   0.0000       2.156214        58.6736 
  78   0.0000       2.369110        64.4668 
  79   0.0000       2.370122        64.4943 
  80   0.0000       2.378599        64.7250 
  81   0.0000       2.400765        65.3281 
  82   0.0000       2.431048        66.1522 
  83   0.0000       2.431624        66.1679 
  84   0.0000       2.529654        68.8354 
  85   0.0000       2.540162        69.1213 
  86   0.0000       2.576901        70.1210 
  87   0.0000       2.599457        70.7348 
  88   0.0000       2.602977        70.8306 
  89   0.0000       2.635628        71.7191 
  90   0.0000       2.638372        71.7938 
  91   0.0000       2.646426        72.0129 
  92   0.0000       2.748813        74.7990 
  93   0.0000       2.981463        81.1297 
  94   0.0000       3.031727        82.4975 
  95   0.0000       3.049326        82.9764 
  96   0.0000       3.203230        87.1643 
  97   0.0000       3.240024        88.1655 
  98   0.0000       3.248822        88.4049 
  99   0.0000       3.319629        90.3317 
 100   0.0000       3.431299        93.3704 
 101   0.0000       3.438797        93.5744 
 102   0.0000       3.498909        95.2101 
 103   0.0000       3.525313        95.9286 
 104   0.0000       3.536405        96.2305 
 105   0.0000       3.575843        97.3036 
 106   0.0000       3.578798        97.3840 
 107   0.0000       3.787193       103.0547 
 108   0.0000       4.522782       123.0712 
 109   0.0000       4.541780       123.5881 
 110   0.0000       4.555069       123.9497 
 111   0.0000       4.650564       126.5483 
 112   0.0000       4.662271       126.8668 
 113   0.0000       4.668610       127.0393 
 114   0.0000       5.474978       148.9817 
 115   0.0000       5.486419       149.2930 
 116   0.0000       5.565260       151.4384 
 117   0.0000       6.389209       173.8592 
 118   0.0000       6.457575       175.7195 
 119   0.0000       6.475061       176.1954 
 120   0.0000       6.828191       185.8045 
 121   0.0000       6.830245       185.8604 
 122   0.0000       6.831809       185.9030 
 123   0.0000       6.838141       186.0753 
 124   0.0000       6.839273       186.1061 
 125   0.0000       6.850435       186.4098 
 126   0.0000       6.853885       186.5037 
 127   0.0000       6.864825       186.8014 
 128   0.0000       6.868759       186.9084 
 129   0.0000       6.957956       189.3356 
 130   0.0000       6.959312       189.3725 
 131   0.0000       7.035581       191.4479 
 132   0.0000       7.228312       196.6924 
 133   0.0000       7.238227       196.9622 
 134   0.0000       7.254354       197.4010 
 135   0.0000       7.391108       201.1223 
 136   0.0000       7.402860       201.4421 
 137   0.0000       7.571623       206.0343 
 138   0.0000       7.580244       206.2689 
 139   0.0000       7.590345       206.5438 
 140   0.0000       7.752569       210.9581 
 141   0.0000       8.708675       236.9751 
 142   0.0000       8.708806       236.9786 
 143   0.0000       8.712654       237.0834 
 144   0.0000       8.714353       237.1296 
 145   0.0000       8.737143       237.7497 
 146   0.0000       8.738576       237.7887 
 147   0.0000       8.797067       239.3804 
 148   0.0000       8.890256       241.9162 
 149   0.0000       8.893344       242.0002 
 150   0.0000       8.905961       242.3435 
 151   0.0000       8.915756       242.6100 
 152   0.0000       8.918981       242.6978 
 153   0.0000       8.923760       242.8279 
 154   0.0000       9.068005       246.7530 
 155   0.0000       9.090971       247.3779 
 156   0.0000       9.276270       252.4201 
 157   0.0000       9.831000       267.5151 
 158   0.0000       9.857632       268.2398 
 159   0.0000      12.057409       328.0988 
 160   0.0000      20.129490       547.7513 
 161   0.0000      20.134309       547.8824 
 162   0.0000      20.139804       548.0319 
 163   0.0000      20.184399       549.2454 
 164   0.0000      20.205449       549.8182 
 165   0.0000      20.209471       549.9277 
 166   0.0000      20.826864       566.7278 
 167   0.0000      20.838944       567.0565 
 168   0.0000      20.905384       568.8644 
 169   0.0000      27.361100       744.5334 
 170   0.0000      27.436208       746.5772 
 171   0.0000      27.453875       747.0579 
 172   0.0000      46.359337      1261.5017 
 173   0.0000     109.247668      2972.7802 
 174   0.0000     109.302876      2974.2825 
 175   0.0000     109.318591      2974.7101 
 176   0.0000     170.611754      4642.5818 
 177   0.0000     404.539581     11008.0816 
 178   0.0000     404.585688     11009.3363 
 179   0.0000     404.600073     11009.7277 
 180   0.0000     800.019450     21769.6360 
 181   0.0000    1899.479938     51687.4769 
 182   0.0000    1899.529549     51688.8268 
 183   0.0000    1899.545188     51689.2524 
-------
TIMINGS
-------

Total SCF time: 0 days 0 hours 0 min 45 sec 

Total time                  ....      45.687 sec
Sum of individual times     ....      45.255 sec  ( 99.1%)

Fock matrix formation       ....      44.282 sec  ( 96.9%)
  XC integration            ....       6.923 sec  ( 15.6% of F)
    Basis function eval.    ....       1.215 sec  ( 17.6% of XC)
    Density eval.           ....       1.724 sec  ( 24.9% of XC)
    XC-Functional eval.     ....       0.486 sec  (  7.0% of XC)
    XC-Potential eval.      ....       3.188 sec  ( 46.1% of XC)
Diagonalization             ....       0.256 sec  (  0.6%)
Density matrix formation    ....       0.012 sec  (  0.0%)
Population analysis         ....       0.001 sec  (  0.0%)
Initial guess               ....       0.152 sec  (  0.3%)
Orbital Transformation      ....       0.000 sec  (  0.0%)
Orbital Orthonormalization  ....       0.000 sec  (  0.0%)
DIIS solution               ....       0.231 sec  (  0.5%)
Grid generation             ....       0.320 sec  (  0.7%)

Maximum memory used throughout the entire SCF-calculation: 258.0 MB

-------------------------   --------------------
FINAL SINGLE POINT ENERGY      -337.371334963043
-------------------------   --------------------

------------------------------------------------------------------------------
                         ORCA SCF GRADIENT CALCULATION
------------------------------------------------------------------------------

Gradient of the Kohn-Sham DFT energy:
Kohn-Sham wavefunction type      ... UKS
Hartree-Fock exchange scaling    ...    0.250
Number of operators              ...    2
Number of atoms                  ...    4
Basis set dimensions             ...  184
Integral neglect threshold       ... 2.5e-11
Integral primitive cutoff        ... 2.5e-12
SHARK Integral package           ... ON

Nuc. rep. gradient       (SHARK) ... done (  0.0 sec)
HCore & Overlap gradient (SHARK) ... done (  0.1 sec)
Two-Electron gradient    (SHARK) ... done ( 14.1 sec)
Exchange-correlation gradient    ... done

------------------
CARTESIAN GRADIENT
------------------

   1   C   :   -0.003443801   -0.005340908    0.068934560
   2   F   :   -0.030296024   -0.039490012   -0.022039277
   3   F   :   -0.015399024    0.044169386   -0.023438345
   4   F   :    0.049138850    0.000661534   -0.023456938

Difference to translation invariance:
           :   -0.0000000000    0.0000000000    0.0000000000

Difference to rotation invariance:
           :   -0.0001301622    0.0000494872   -0.0001665298

Norm of the cartesian gradient     ...    0.1160090997
RMS gradient                       ...    0.0334889425
MAX gradient                       ...    0.0689345604

-------
TIMINGS
-------

Total SCF gradient time            ...       15.617 sec

One electron gradient       ....       0.051 sec  (  0.3%)
Two electron gradient       ....      14.131 sec  ( 90.5%)
XC gradient                 ....       1.339 sec  (  8.6%)

Maximum memory used throughout the entire SCFGRAD-calculation: 57.6 MB
------------------------------------------------------------------------------
                         ORCA GEOMETRY RELAXATION STEP
------------------------------------------------------------------------------

Reading the OPT-File                    .... done
Getting information on internals        .... done
Copying old internal coords+grads       .... done
Making the new internal coordinates     .... (new redundants).... done
Validating the new internal coordinates .... (new redundants).... done
Calculating the B-matrix                .... done
Calculating the G,G- and P matrices     .... done
Transforming gradient to internals      .... done
Projecting the internal gradient        .... done
Number of atoms                         ....   4
Number of internal coordinates          ....   7
Current Energy                          ....  -337.371334963 Eh
Current gradient norm                   ....     0.116009100 Eh/bohr
Maximum allowed component of the step   ....  0.300
Current trust radius                    ....  0.300
Evaluating the initial hessian          ....  (Almloef) done
Projecting the Hessian                  .... done
Forming the augmented Hessian           .... done
Diagonalizing the augmented Hessian     .... done
Last element of RFO vector              ....  0.983323405
Lowest eigenvalues of augmented Hessian:
 -0.016725647  0.136736947  0.404875717  0.405046103  0.538538130
Length of the computed step             ....  0.184949894
The final length of the internal step   ....  0.184949894
Converting the step to cartesian space:
 Initial RMS(Int)=    0.0699044892
Transforming coordinates:
 Iter   0:  RMS(Cart)=    0.0425479627 RMS(Int)=    0.0697382295
 Iter   1:  RMS(Cart)=    0.0012713534 RMS(Int)=    0.0015034850
 Iter   2:  RMS(Cart)=    0.0000572069 RMS(Int)=    0.0000692467
 Iter   3:  RMS(Cart)=    0.0000011915 RMS(Int)=    0.0000015639
 Iter   4:  RMS(Cart)=    0.0000000431 RMS(Int)=    0.0000000440
done
Storing new coordinates                 .... done

                                .--------------------.
          ----------------------|Geometry convergence|-------------------------
          Item                value                   Tolerance       Converged
          ---------------------------------------------------------------------
          RMS gradient        0.0357066007            0.0001000000      NO
          MAX gradient        0.0542991855            0.0003000000      NO
          RMS step            0.0699044892            0.0020000000      NO
          MAX step            0.0975514778            0.0040000000      NO
          ........................................................
          Max(Bonds)      0.0516      Max(Angles)    2.79
          Max(Dihed)        0.00      Max(Improp)    3.46
          ---------------------------------------------------------------------

The optimization has not yet converged - more geometry cycles are needed


    ---------------------------------------------------------------------------
                         Redundant Internal Coordinates
                            (Angstroem and degrees)

        Definition                    Value    dE/dq     Step     New-Value
    ----------------------------------------------------------------------------
     1. B(F   1,C   0)                1.3776  0.054299 -0.0512    1.3264   
     2. B(F   2,C   0)                1.3775  0.051826 -0.0489    1.3286   
     3. B(F   3,C   0)                1.3814  0.053979 -0.0516    1.3298   
     4. A(F   1,C   0,F   3)          110.30  0.001320    0.84    111.14   
     5. A(F   2,C   0,F   3)          107.46 -0.016837    2.79    110.26   
     6. A(F   1,C   0,F   2)          109.56 -0.002516    1.34    110.90   
     7. I(F   1,F   3,F   2,C   0)    -54.81 -0.009223    3.46    -51.35   
    ----------------------------------------------------------------------------

         *************************************************************
         *                GEOMETRY OPTIMIZATION CYCLE   2            *
         *************************************************************
---------------------------------
CARTESIAN COORDINATES (ANGSTROEM)
---------------------------------
  C     -0.002058   -0.004032    0.311328
  F     -0.739145   -1.024315   -0.106963
  F     -0.515051    1.150102   -0.100995
  F      1.256255   -0.121755   -0.102370

----------------------------
CARTESIAN COORDINATES (A.U.)
----------------------------
  NO LB      ZA    FRAG     MASS         X           Y           Z
   0 C     6.0000    0    12.011   -0.003889   -0.007619    0.588325
   1 F     9.0000    0    18.998   -1.396782   -1.935675   -0.202131
   2 F     9.0000    0    18.998   -0.973305    2.173378   -0.190853
   3 F     9.0000    0    18.998    2.373977   -0.230085   -0.193451

--------------------------------
INTERNAL COORDINATES (ANGSTROEM)
--------------------------------
 C      0   0   0     0.000000000000     0.00000000     0.00000000
 F      1   0   0     1.326364659900     0.00000000     0.00000000
 F      1   2   0     1.328607167742   110.84092698     0.00000000
 F      1   2   3     1.329795368013   111.07801106   237.10056039

---------------------------
INTERNAL COORDINATES (A.U.)
---------------------------
 C      0   0   0     0.000000000000     0.00000000     0.00000000
 F      1   0   0     2.506465960922     0.00000000     0.00000000
 F      1   2   0     2.510703686597   110.84092698     0.00000000
 F      1   2   3     2.512949059701   111.07801106   237.10056039

------------------------------------------------------------------------------
                   ___                                                        
                  /   \      - P O W E R E D   B Y -                         
                 /     \                                                     
                 |  |  |   _    _      __       _____    __    __             
                 |  |  |  | |  | |    /  \     |  _  \  |  |  /  |          
                  \  \/   | |  | |   /    \    | | | |  |  | /  /          
                 / \  \   | |__| |  /  /\  \   | |_| |  |  |/  /          
                |  |  |   |  __  | /  /__\  \  |    /   |      \           
                |  |  |   | |  | | |   __   |  |    \   |  |\   \          
                \     /   | |  | | |  |  |  |  | |\  \  |  | \   \       
                 \___/    |_|  |_| |__|  |__|  |_| \__\ |__|  \__/        
                                                                              
                      - O R C A' S   B I G   F R I E N D -                    
                                      &                                       
                       - I N T E G R A L  F E E D E R -                       
                                                                              
 v1 FN, 2020, v2 2021                                                         
------------------------------------------------------------------------------


Reading SHARK input file C-F-F-F_radical_opt.SHARKINP.tmp ... ok
----------------------
SHARK INTEGRAL PACKAGE
----------------------

Number of atoms                             ...      4
Number of basis functions                   ...    184
Number of shells                            ...     72
Maximum angular momentum                    ...      3
Integral batch strategy                     ... SHARK/LIBINT Hybrid
RI-J (if used) integral strategy            ... SPLIT-RIJ (Revised 2003 algorithm where possible)
Printlevel                                  ...      1
Contraction scheme used                     ... SEGMENTED contraction
Coulomb Range Separation                    ... NOT USED
Exchange Range Separation                   ... NOT USED
Finite Nucleus Model                        ... NOT USED
Auxiliary Coulomb fitting basis             ... NOT available
Auxiliary J/K fitting basis                 ... NOT available
Auxiliary Correlation fitting basis         ... NOT available
Auxiliary 'external' fitting basis          ... NOT available
Integral threshold                          ...     2.500000e-11
Primitive cut-off                           ...     2.500000e-12
Primitive pair pre-selection threshold      ...     2.500000e-12

Calculating pre-screening integrals         ... done (  0.0 sec) Dimension = 72
Organizing shell pair data                  ... done (  0.0 sec)
Shell pair information
Total number of shell pairs                 ...      2628
Shell pairs after pre-screening             ...      2327
Total number of primitive shell pairs       ...      5138
Primitive shell pairs kept                  ...      3919
          la=0 lb=0:    504 shell pairs
          la=1 lb=0:    642 shell pairs
          la=1 lb=1:    201 shell pairs
          la=2 lb=0:    402 shell pairs
          la=2 lb=1:    234 shell pairs
          la=2 lb=2:     78 shell pairs
          la=3 lb=0:    128 shell pairs
          la=3 lb=1:     80 shell pairs
          la=3 lb=2:     48 shell pairs
          la=3 lb=3:     10 shell pairs

Calculating one electron integrals          ... done (  0.0 sec)
Calculating Nuclear repulsion               ... done (  0.0 sec) ENN=    123.377924262414 Eh

SHARK setup successfully completed in   0.2 seconds

Maximum memory used throughout the entire GTOINT-calculation: 31.6 MB

Diagonalization of the overlap matrix:
Smallest eigenvalue                        ... 6.071e-04
Time for diagonalization                   ...    0.010 sec
Threshold for overlap eigenvalues          ... 1.000e-08
Number of eigenvalues below threshold      ... 0
Time for construction of square roots      ...    0.004 sec
Total time needed                          ...    0.014 sec

-------------------
DFT GRID GENERATION
-------------------

General Integration Accuracy     IntAcc      ... 4.388
Radial Grid Type                 RadialGrid  ... OptM3 with GC (2021)
Angular Grid (max. ang.)         AngularGrid ... 4 (Lebedev-302)
Angular grid pruning method      GridPruning ... 4 (adaptive)
Weight generation scheme         WeightScheme... Becke
Basis function cutoff            BFCut       ... 1.0000e-11
Integration weight cutoff        WCut        ... 1.0000e-14
Angular grids for H and He will be reduced by one unit
Partially contracted basis set               ... off
Rotationally invariant grid construction     ... off

Total number of grid points                  ...    25770
Total number of batches                      ...      404
Average number of points per batch           ...       63
Average number of grid points per atom       ...     6442
Time for grid setup =    0.250 sec

--------------
SCF ITERATIONS
--------------
ITER       Energy         Delta-E        Max-DP      RMS-DP      [F,P]     Damp
               ***  Starting incremental Fock matrix formation  ***
  0   -337.3778312323   0.000000000000 0.00393895  0.00005690  0.0157849 0.7000
  1   -337.3790884533  -0.001257220994 0.00412623  0.00005201  0.0109704 0.7000
                               ***Turning on DIIS***
  2   -337.3800182806  -0.000929827249 0.01210287  0.00013725  0.0078754 0.0000
  3   -337.3823264373  -0.002308156723 0.00317854  0.00002937  0.0015939 0.0000
  4   -337.3823719369  -0.000045499657 0.00109903  0.00001520  0.0005591 0.0000
  5   -337.3823810841  -0.000009147149 0.00029111  0.00000360  0.0001318 0.0000
  6   -337.3823814483  -0.000000364181 0.00002912  0.00000082  0.0001060 0.0000
  7   -337.3823814960  -0.000000047751 0.00001651  0.00000042  0.0000683 0.0000
  8   -337.3823815199  -0.000000023902 0.00000801  0.00000013  0.0000087 0.0000
  9   -337.3823815212  -0.000000001328 0.00000350  0.00000004  0.0000023 0.0000
                            ***DIIS convergence achieved***

               *****************************************************
               *                     SUCCESS                       *
               *           SCF CONVERGED AFTER  10 CYCLES          *
               *****************************************************

Total Energy       :         -337.38238152 Eh           -9180.64134 eV
  Last Energy change         ...    1.9065e-10  Tolerance :   1.0000e-08
  Last MAX-Density change    ...    2.1570e-06  Tolerance :   1.0000e-07
             **** THE GBW FILE WAS UPDATED (C-F-F-F_radical_opt.gbw) ****
             **** DENSITY C-F-F-F_radical_opt.scfp WAS UPDATED ****
             **** ENERGY FILE WAS UPDATED (C-F-F-F_radical_opt.en.tmp) ****
----------------------
UHF SPIN CONTAMINATION
----------------------

Warning: in a DFT calculation there is little theoretical justification to 
         calculate <S**2> as in Hartree-Fock theory. We will do it anyways
         but you should keep in mind that the values have only limited relevance

Expectation value of <S**2>     :     0.751947
Ideal value S*(S+1) for S=0.5   :     0.750000
Deviation                       :     0.001947

             **** THE GBW FILE WAS UPDATED (C-F-F-F_radical_opt.gbw) ****
             **** DENSITY C-F-F-F_radical_opt.scfp WAS UPDATED ****
Total SCF time: 0 days 0 hours 0 min 36 sec 

Maximum memory used throughout the entire SCF-calculation: 258.1 MB

-------------------------   --------------------
FINAL SINGLE POINT ENERGY      -337.382381521050
-------------------------   --------------------

------------------------------------------------------------------------------
                         ORCA SCF GRADIENT CALCULATION
------------------------------------------------------------------------------

Gradient of the Kohn-Sham DFT energy:
Kohn-Sham wavefunction type      ... UKS
Hartree-Fock exchange scaling    ...    0.250
Number of operators              ...    2
Number of atoms                  ...    4
Basis set dimensions             ...  184
Integral neglect threshold       ... 2.5e-11
Integral primitive cutoff        ... 2.5e-12
SHARK Integral package           ... ON

Nuc. rep. gradient       (SHARK) ... done (  0.0 sec)
HCore & Overlap gradient (SHARK) ... done (  0.1 sec)
Two-Electron gradient    (SHARK) ... done ( 14.9 sec)
Exchange-correlation gradient    ... done

------------------
CARTESIAN GRADIENT
------------------

   1   C   :   -0.001839562   -0.002446354    0.019556729
   2   F   :   -0.007792496   -0.009944473   -0.005918074
   3   F   :   -0.004311324    0.012225412   -0.006795127
   4   F   :    0.013943382    0.000165414   -0.006843529

Difference to translation invariance:
           :    0.0000000000    0.0000000000    0.0000000000

Difference to rotation invariance:
           :   -0.0000928995    0.0000607686   -0.0001260482

Norm of the cartesian gradient     ...    0.0322796303
RMS gradient                       ...    0.0093183266
MAX gradient                       ...    0.0195567292

-------
TIMINGS
-------

Total SCF gradient time            ...       16.391 sec

One electron gradient       ....       0.053 sec  (  0.3%)
Two electron gradient       ....      14.917 sec  ( 91.0%)
XC gradient                 ....       1.313 sec  (  8.0%)

Maximum memory used throughout the entire SCFGRAD-calculation: 57.7 MB
------------------------------------------------------------------------------
                         ORCA GEOMETRY RELAXATION STEP
------------------------------------------------------------------------------

Reading the OPT-File                    .... done
Getting information on internals        .... done
Copying old internal coords+grads       .... done
Making the new internal coordinates     .... (new redundants).... done
Validating the new internal coordinates .... (new redundants).... done
Calculating the B-matrix                .... done
Calculating the G,G- and P matrices     .... done
Transforming gradient to internals      .... done
Projecting the internal gradient        .... done
Number of atoms                         ....   4
Number of internal coordinates          ....   7
Current Energy                          ....  -337.382381521 Eh
Current gradient norm                   ....     0.032279630 Eh/bohr
Maximum allowed component of the step   ....  0.300
Current trust radius                    ....  0.300
Updating the Hessian (BFGS)             .... done
Forming the augmented Hessian           .... done
Diagonalizing the augmented Hessian     .... done
Last element of RFO vector              ....  0.997032947
Lowest eigenvalues of augmented Hessian:
 -0.001853139  0.132623450  0.383596264  0.404961717  0.438034560
Length of the computed step             ....  0.077205054
The final length of the internal step   ....  0.077205054
Converting the step to cartesian space:
 Initial RMS(Int)=    0.0291807676
Transforming coordinates:
 Iter   0:  RMS(Cart)=    0.0168498726 RMS(Int)=    0.0291535199
 Iter   1:  RMS(Cart)=    0.0002812506 RMS(Int)=    0.0003425996
 Iter   2:  RMS(Cart)=    0.0000052561 RMS(Int)=    0.0000066969
 Iter   3:  RMS(Cart)=    0.0000000417 RMS(Int)=    0.0000000612
done
Storing new coordinates                 .... done

                                .--------------------.
          ----------------------|Geometry convergence|-------------------------
          Item                value                   Tolerance       Converged
          ---------------------------------------------------------------------
          Energy change      -0.0110465580            0.0000050000      NO
          RMS gradient        0.0098655703            0.0001000000      NO
          MAX gradient        0.0153051325            0.0003000000      NO
          RMS step            0.0291807676            0.0020000000      NO
          MAX step            0.0384010261            0.0040000000      NO
          ........................................................
          Max(Bonds)      0.0203      Max(Angles)    1.37
          Max(Dihed)        0.00      Max(Improp)    2.00
          ---------------------------------------------------------------------

The optimization has not yet converged - more geometry cycles are needed


    ---------------------------------------------------------------------------
                         Redundant Internal Coordinates
                            (Angstroem and degrees)

        Definition                    Value    dE/dq     Step     New-Value
    ----------------------------------------------------------------------------
     1. B(F   1,C   0)                1.3264  0.013853 -0.0181    1.3083   
     2. B(F   2,C   0)                1.3286  0.014390 -0.0188    1.3098   
     3. B(F   3,C   0)                1.3298  0.015305 -0.0203    1.3095   
     4. A(F   1,C   0,F   3)          111.08  0.000378    0.53    111.60   
     5. A(F   2,C   0,F   3)          110.23 -0.005649    1.37    111.59   
     6. A(F   1,C   0,F   2)          110.84 -0.000986    0.78    111.62   
     7. I(F   1,F   3,F   2,C   0)    -51.29 -0.003880    2.00    -49.29   
    ----------------------------------------------------------------------------

         *************************************************************
         *                GEOMETRY OPTIMIZATION CYCLE   3            *
         *************************************************************
---------------------------------
CARTESIAN COORDINATES (ANGSTROEM)
---------------------------------
  C     -0.000570   -0.001208    0.292279
  F     -0.729548   -1.013800   -0.101203
  F     -0.513802    1.140146   -0.094275
  F      1.243921   -0.125138   -0.095801

----------------------------
CARTESIAN COORDINATES (A.U.)
----------------------------
  NO LB      ZA    FRAG     MASS         X           Y           Z
   0 C     6.0000    0    12.011   -0.001078   -0.002282    0.552326
   1 F     9.0000    0    18.998   -1.378647   -1.915804   -0.191247
   2 F     9.0000    0    18.998   -0.970946    2.154563   -0.178153
   3 F     9.0000    0    18.998    2.350670   -0.236476   -0.181037

--------------------------------
INTERNAL COORDINATES (ANGSTROEM)
--------------------------------
 C      0   0   0     0.000000000000     0.00000000     0.00000000
 F      1   0   0     1.308273636057     0.00000000     0.00000000
 F      1   2   0     1.309777692970   111.55290273     0.00000000
 F      1   2   3     1.309474421314   111.54106731   234.50700604

---------------------------
INTERNAL COORDINATES (A.U.)
---------------------------
 C      0   0   0     0.000000000000     0.00000000     0.00000000
 F      1   0   0     2.472278880376     0.00000000     0.00000000
 F      1   2   0     2.475121136033   111.55290273     0.00000000
 F      1   2   3     2.474548035659   111.54106731   234.50700604

------------------------------------------------------------------------------
                   ___                                                        
                  /   \      - P O W E R E D   B Y -                         
                 /     \                                                     
                 |  |  |   _    _      __       _____    __    __             
                 |  |  |  | |  | |    /  \     |  _  \  |  |  /  |          
                  \  \/   | |  | |   /    \    | | | |  |  | /  /          
                 / \  \   | |__| |  /  /\  \   | |_| |  |  |/  /          
                |  |  |   |  __  | /  /__\  \  |    /   |      \           
                |  |  |   | |  | | |   __   |  |    \   |  |\   \          
                \     /   | |  | | |  |  |  |  | |\  \  |  | \   \       
                 \___/    |_|  |_| |__|  |__|  |_| \__\ |__|  \__/        
                                                                              
                      - O R C A' S   B I G   F R I E N D -                    
                                      &                                       
                       - I N T E G R A L  F E E D E R -                       
                                                                              
 v1 FN, 2020, v2 2021                                                         
------------------------------------------------------------------------------


Reading SHARK input file C-F-F-F_radical_opt.SHARKINP.tmp ... ok
----------------------
SHARK INTEGRAL PACKAGE
----------------------

Number of atoms                             ...      4
Number of basis functions                   ...    184
Number of shells                            ...     72
Maximum angular momentum                    ...      3
Integral batch strategy                     ... SHARK/LIBINT Hybrid
RI-J (if used) integral strategy            ... SPLIT-RIJ (Revised 2003 algorithm where possible)
Printlevel                                  ...      1
Contraction scheme used                     ... SEGMENTED contraction
Coulomb Range Separation                    ... NOT USED
Exchange Range Separation                   ... NOT USED
Finite Nucleus Model                        ... NOT USED
Auxiliary Coulomb fitting basis             ... NOT available
Auxiliary J/K fitting basis                 ... NOT available
Auxiliary Correlation fitting basis         ... NOT available
Auxiliary 'external' fitting basis          ... NOT available
Integral threshold                          ...     2.500000e-11
Primitive cut-off                           ...     2.500000e-12
Primitive pair pre-selection threshold      ...     2.500000e-12

Calculating pre-screening integrals         ... done (  0.0 sec) Dimension = 72
Organizing shell pair data                  ... done (  0.0 sec)
Shell pair information
Total number of shell pairs                 ...      2628
Shell pairs after pre-screening             ...      2334
Total number of primitive shell pairs       ...      5138
Primitive shell pairs kept                  ...      3926
          la=0 lb=0:    504 shell pairs
          la=1 lb=0:    645 shell pairs
          la=1 lb=1:    201 shell pairs
          la=2 lb=0:    402 shell pairs
          la=2 lb=1:    234 shell pairs
          la=2 lb=2:     78 shell pairs
          la=3 lb=0:    132 shell pairs
          la=3 lb=1:     80 shell pairs
          la=3 lb=2:     48 shell pairs
          la=3 lb=3:     10 shell pairs

Calculating one electron integrals          ... done (  0.0 sec)
Calculating Nuclear repulsion               ... done (  0.0 sec) ENN=    124.877977979231 Eh

SHARK setup successfully completed in   0.2 seconds

Maximum memory used throughout the entire GTOINT-calculation: 31.7 MB

Diagonalization of the overlap matrix:
Smallest eigenvalue                        ... 5.584e-04
Time for diagonalization                   ...    0.008 sec
Threshold for overlap eigenvalues          ... 1.000e-08
Number of eigenvalues below threshold      ... 0
Time for construction of square roots      ...    0.004 sec
Total time needed                          ...    0.012 sec

-------------------
DFT GRID GENERATION
-------------------

General Integration Accuracy     IntAcc      ... 4.388
Radial Grid Type                 RadialGrid  ... OptM3 with GC (2021)
Angular Grid (max. ang.)         AngularGrid ... 4 (Lebedev-302)
Angular grid pruning method      GridPruning ... 4 (adaptive)
Weight generation scheme         WeightScheme... Becke
Basis function cutoff            BFCut       ... 1.0000e-11
Integration weight cutoff        WCut        ... 1.0000e-14
Angular grids for H and He will be reduced by one unit
Partially contracted basis set               ... off
Rotationally invariant grid construction     ... off

Total number of grid points                  ...    25767
Total number of batches                      ...      405
Average number of points per batch           ...       63
Average number of grid points per atom       ...     6442
[...]
 Solving for nuclear perturbation:
Forming RHS of the CP-SCF equations         ... 
Calc. nucleus orbit integrals (SHARK)       ... done

------------------------------------------------------------------------------
                           ORCA CP-SCF CALCULATION
------------------------------------------------------------------------------

Input orbitals are from        ... C-F-F-F_radical_EPR.gbw
Input Perturbation             ... C-F-F-F_radical_EPR.pin.tmp
Wavefunction output            ... C-F-F-F_radical_EPR.pout.tmp
Perturbation mode              ... Imaginary perturbation
Solver                         ... POPLE
Max. number of iterations      ... 64
Convergence tolerance          ... 1.000e-03
Integral handling              ... Direct
DFT GridXC                     ... 1
Number of perturbations        ... 3
Number of operators            ... 2
Orbital ranges used for CP-SCF:
 Operator 0:  Orbitals   0... 16  to  17...183
 Operator 1:  Orbitals   0... 15  to  16...183
Variables per perturbation     ... 5527
DFT calculation                         ... on
XC functional terms                     ... off
Hybrid DFT                              ... on
   Exchange mixing (SCF)                ...  0.250
   Exchange mixing (CP-SCF)             ...  0.250
   GGA exch. scaling(SCF)               ...  0.750
   GGA exch. scaling (CP-SCF)           ...  0.750
   GGA corr. scaling (SCF)              ...  1.000
   GGA corr. scaling (CP-SCF)           ...  1.000

CP-SCF GRID
-----------

General Integration Accuracy     IntAcc      ... 3.467
Radial Grid Type                 RadialGrid  ... OptM3 with GC (2021)
Angular Grid (max. ang.)         AngularGrid ... 1 (Lebedev-50)
Angular grid pruning method      GridPruning ... 4 (adaptive)
Weight generation scheme         WeightScheme... Becke
Basis function cutoff            BFCut       ... 1.0000e-11
Integration weight cutoff        WCut        ... 1.0000e-14
Angular grids for H and He will be reduced by one unit
Partially contracted basis set               ... off
Rotationally invariant grid construction     ... off

Total number of grid points                  ...     4142
Total number of batches                      ...       67
Average number of points per batch           ...       61
Average number of grid points per atom       ...     1036

Memory available               ... 907.3 MB
Memory needed per perturbation ...   6.5 MB
Perturbations treated per batch... 3
Number of batches              ... 1
     CP-SCF ITERATION   0:   8.3362e-01 (   6.5 sec   0/  3 done)
     CP-SCF ITERATION   1:   2.5834e-02 (   6.4 sec   0/  3 done)
     CP-SCF ITERATION   2:   1.5796e-03 (   6.4 sec   1/  3 done)
     CP-SCF ITERATION   3:   1.0053e-04 (   5.6 sec   3/  3 done)
                    *** THE CP-SCF HAS CONVERGED ***

Forming final perturbed densities           ... done
Transforming perturbed density to AO basis  ... done

 Raw HFC matrix (all values in MHz): 
 -----------------------------------
               665.7875              -0.0006              -0.2637
                -0.0006             665.7879              -0.6089
                -0.2637              -0.6089             863.1467

 A(FC)         731.5851             731.5851             731.5851
 A(SD)         -65.7972             -65.7946             131.5919
 A(ORB+DIA)     -0.0028              -0.0024              -0.0281    A(PC) =  -0.0111
 A(ORB)         -0.0049              -0.0045              -0.0278    A(PC) =  -0.0124
 A(DIA)          0.0021               0.0021              -0.0003    A(PC) =   0.0013
             ----------           ----------           ----------
 A(Tot)        665.7850             665.7881             863.1489    A(iso)=  731.5740
 Orientation: 
  X           0.5630611            0.8264142            0.0013363
  Y           0.8264087           -0.5630623            0.0030852
  Z           0.0033021           -0.0006328           -0.9999943

Notes:  (1) The A matrix conforms to the "SAI" spin Hamiltonian convention.
        (2) Tensor is right-handed.

 -----------------------------------------------------------
 Nucleus   1F : A:ISTP=   19 I=  0.5 P=502.2248 MHz/au**3
                Q:ISTP=   19 I=  0.5 Q=  0.0000 barn     
 -----------------------------------------------------------
 Solving for nuclear perturbation:
Forming RHS of the CP-SCF equations         ... 
Calc. nucleus orbit integrals (SHARK)       ... done

------------------------------------------------------------------------------
                           ORCA CP-SCF CALCULATION
------------------------------------------------------------------------------

Input orbitals are from        ... C-F-F-F_radical_EPR.gbw
Input Perturbation             ... C-F-F-F_radical_EPR.pin.tmp
Wavefunction output            ... C-F-F-F_radical_EPR.pout.tmp
Perturbation mode              ... Imaginary perturbation
Solver                         ... POPLE
Max. number of iterations      ... 64
Convergence tolerance          ... 1.000e-03
Integral handling              ... Direct
DFT GridXC                     ... 1
Number of perturbations        ... 3
Number of operators            ... 2
Orbital ranges used for CP-SCF:
 Operator 0:  Orbitals   0... 16  to  17...183
 Operator 1:  Orbitals   0... 15  to  16...183
Variables per perturbation     ... 5527
DFT calculation                         ... on
XC functional terms                     ... off
Hybrid DFT                              ... on
   Exchange mixing (SCF)                ...  0.250
   Exchange mixing (CP-SCF)             ...  0.250
   GGA exch. scaling(SCF)               ...  0.750
   GGA exch. scaling (CP-SCF)           ...  0.750
   GGA corr. scaling (SCF)              ...  1.000
   GGA corr. scaling (CP-SCF)           ...  1.000

CP-SCF GRID
-----------

General Integration Accuracy     IntAcc      ... 3.467
Radial Grid Type                 RadialGrid  ... OptM3 with GC (2021)
Angular Grid (max. ang.)         AngularGrid ... 1 (Lebedev-50)
Angular grid pruning method      GridPruning ... 4 (adaptive)
Weight generation scheme         WeightScheme... Becke
Basis function cutoff            BFCut       ... 1.0000e-11
Integration weight cutoff        WCut        ... 1.0000e-14
Angular grids for H and He will be reduced by one unit
Partially contracted basis set               ... off
Rotationally invariant grid construction     ... off

Total number of grid points                  ...     4142
Total number of batches                      ...       67
Average number of points per batch           ...       61
Average number of grid points per atom       ...     1036

Memory available               ... 907.0 MB
Memory needed per perturbation ...   6.5 MB
Perturbations treated per batch... 3
Number of batches              ... 1
     CP-SCF ITERATION   0:   2.7051e+00 (   6.5 sec   0/  3 done)
     CP-SCF ITERATION   1:   1.0446e-01 (   6.3 sec   0/  3 done)
     CP-SCF ITERATION   2:   6.7401e-03 (   6.3 sec   0/  3 done)
     CP-SCF ITERATION   3:   5.6515e-04 (   6.3 sec   3/  3 done)
                    *** THE CP-SCF HAS CONVERGED ***

Forming final perturbed densities           ... done
Transforming perturbed density to AO basis  ... done

 Raw HFC matrix (all values in MHz): 
 -----------------------------------
               224.8513              13.4327              85.0270
                13.4329             233.6340             117.5202
                84.8406             117.2613             733.9675

 A(FC)         396.3895             396.3895             396.3895
 A(SD)        -194.0025            -183.3149             377.3174
 A(ORB+DIA)      1.3902               2.0358              -0.1416    A(PC) =   1.0948
 A(ORB)          1.3868               2.0349              -0.1409    A(PC) =   1.0936
 A(DIA)          0.0034               0.0009              -0.0007    A(PC) =   0.0012
             ----------           ----------           ----------
 A(Tot)        203.7772             215.1104             773.5653    A(iso)=  397.4843
 Orientation: 
  X           0.5633095            0.8116390           -0.1546757
  Y           0.7829845           -0.5841590           -0.2137606
  Z          -0.2638516           -0.0006953           -0.9645630

Notes:  (1) The A matrix conforms to the "SAI" spin Hamiltonian convention.
        (2) Tensor is right-handed.

 -----------------------------------------------------------
 Nucleus   2F : A:ISTP=   19 I=  0.5 P=502.2248 MHz/au**3
                Q:ISTP=   19 I=  0.5 Q=  0.0000 barn     
 -----------------------------------------------------------
 Solving for nuclear perturbation:
Forming RHS of the CP-SCF equations         ... 
Calc. nucleus orbit integrals (SHARK)       ... done

------------------------------------------------------------------------------
                           ORCA CP-SCF CALCULATION
------------------------------------------------------------------------------

Input orbitals are from        ... C-F-F-F_radical_EPR.gbw
Input Perturbation             ... C-F-F-F_radical_EPR.pin.tmp
Wavefunction output            ... C-F-F-F_radical_EPR.pout.tmp
Perturbation mode              ... Imaginary perturbation
Solver                         ... POPLE
Max. number of iterations      ... 64
Convergence tolerance          ... 1.000e-03
Integral handling              ... Direct
DFT GridXC                     ... 1
Number of perturbations        ... 3
Number of operators            ... 2
Orbital ranges used for CP-SCF:
 Operator 0:  Orbitals   0... 16  to  17...183
 Operator 1:  Orbitals   0... 15  to  16...183
Variables per perturbation     ... 5527
DFT calculation                         ... on
XC functional terms                     ... off
Hybrid DFT                              ... on
   Exchange mixing (SCF)                ...  0.250
   Exchange mixing (CP-SCF)             ...  0.250
   GGA exch. scaling(SCF)               ...  0.750
   GGA exch. scaling (CP-SCF)           ...  0.750
   GGA corr. scaling (SCF)              ...  1.000
   GGA corr. scaling (CP-SCF)           ...  1.000

CP-SCF GRID
-----------

General Integration Accuracy     IntAcc      ... 3.467
Radial Grid Type                 RadialGrid  ... OptM3 with GC (2021)
Angular Grid (max. ang.)         AngularGrid ... 1 (Lebedev-50)
Angular grid pruning method      GridPruning ... 4 (adaptive)
Weight generation scheme         WeightScheme... Becke
Basis function cutoff            BFCut       ... 1.0000e-11
Integration weight cutoff        WCut        ... 1.0000e-14
Angular grids for H and He will be reduced by one unit
Partially contracted basis set               ... off
Rotationally invariant grid construction     ... off

Total number of grid points                  ...     4142
Total number of batches                      ...       67
Average number of points per batch           ...       61
Average number of grid points per atom       ...     1036

Memory available               ... 907.0 MB
Memory needed per perturbation ...   6.5 MB
Perturbations treated per batch... 3
Number of batches              ... 1
     CP-SCF ITERATION   0:   2.7441e+00 (   6.5 sec   0/  3 done)
     CP-SCF ITERATION   1:   1.0671e-01 (   6.3 sec   0/  3 done)
     CP-SCF ITERATION   2:   6.7313e-03 (   6.3 sec   0/  3 done)
     CP-SCF ITERATION   3:   5.6897e-04 (   6.3 sec   3/  3 done)
                    *** THE CP-SCF HAS CONVERGED ***

Forming final perturbed densities           ... done
Transforming perturbed density to AO basis  ... done

 Raw HFC matrix (all values in MHz): 
 -----------------------------------
               219.8129             -10.9604              59.5217
               -10.9586             240.2330            -135.4382
                59.3908            -135.1475             731.9795

 A(FC)         396.2459             396.2459             396.2459
 A(SD)        -193.9750            -183.2378             377.2127
 A(ORB+DIA)      1.3917               2.0376              -0.1418    A(PC) =   1.0958
 A(ORB)          1.3883               2.0367              -0.1411    A(PC) =   1.0946
 A(DIA)          0.0034               0.0009              -0.0007    A(PC) =   0.0012
             ----------           ----------           ----------
 A(Tot)        203.6627             215.0458             773.3169    A(iso)=  397.3418
 Orientation: 
  X          -0.3957702            0.9119264           -0.1084258
  Y           0.8778850            0.4103461            0.2468481
  Z           0.2695994            0.0025097           -0.9629693

Notes:  (1) The A matrix conforms to the "SAI" spin Hamiltonian convention.
        (2) Tensor is right-handed.

 -----------------------------------------------------------
 Nucleus   3F : A:ISTP=   19 I=  0.5 P=502.2248 MHz/au**3
                Q:ISTP=   19 I=  0.5 Q=  0.0000 barn     
 -----------------------------------------------------------
 Solving for nuclear perturbation:
Forming RHS of the CP-SCF equations         ... 
Calc. nucleus orbit integrals (SHARK)       ... done

------------------------------------------------------------------------------
                           ORCA CP-SCF CALCULATION
------------------------------------------------------------------------------

Input orbitals are from        ... C-F-F-F_radical_EPR.gbw
Input Perturbation             ... C-F-F-F_radical_EPR.pin.tmp
Wavefunction output            ... C-F-F-F_radical_EPR.pout.tmp
Perturbation mode              ... Imaginary perturbation
Solver                         ... POPLE
Max. number of iterations      ... 64
Convergence tolerance          ... 1.000e-03
Integral handling              ... Direct
DFT GridXC                     ... 1
Number of perturbations        ... 3
Number of operators            ... 2
Orbital ranges used for CP-SCF:
 Operator 0:  Orbitals   0... 16  to  17...183
 Operator 1:  Orbitals   0... 15  to  16...183
Variables per perturbation     ... 5527
DFT calculation                         ... on
XC functional terms                     ... off
Hybrid DFT                              ... on
   Exchange mixing (SCF)                ...  0.250
   Exchange mixing (CP-SCF)             ...  0.250
   GGA exch. scaling(SCF)               ...  0.750
   GGA exch. scaling (CP-SCF)           ...  0.750
   GGA corr. scaling (SCF)              ...  1.000
   GGA corr. scaling (CP-SCF)           ...  1.000

CP-SCF GRID
-----------

General Integration Accuracy     IntAcc      ... 3.467
Radial Grid Type                 RadialGrid  ... OptM3 with GC (2021)
Angular Grid (max. ang.)         AngularGrid ... 1 (Lebedev-50)
Angular grid pruning method      GridPruning ... 4 (adaptive)
Weight generation scheme         WeightScheme... Becke
Basis function cutoff            BFCut       ... 1.0000e-11
Integration weight cutoff        WCut        ... 1.0000e-14
Angular grids for H and He will be reduced by one unit
Partially contracted basis set               ... off
Rotationally invariant grid construction     ... off

Total number of grid points                  ...     4142
Total number of batches                      ...       67
Average number of points per batch           ...       61
Average number of grid points per atom       ...     1036

Memory available               ... 907.0 MB
Memory needed per perturbation ...   6.5 MB
Perturbations treated per batch... 3
Number of batches              ... 1
     CP-SCF ITERATION   0:   2.7782e+00 (   6.6 sec   0/  3 done)
     CP-SCF ITERATION   1:   1.0868e-01 (   6.3 sec   0/  3 done)
     CP-SCF ITERATION   2:   6.7017e-03 (   6.3 sec   0/  3 done)
     CP-SCF ITERATION   3:   5.6516e-04 (   6.3 sec   3/  3 done)
                    *** THE CP-SCF HAS CONVERGED ***

Forming final perturbed densities           ... done
Transforming perturbed density to AO basis  ... done

 Raw HFC matrix (all values in MHz): 
 -----------------------------------
               244.4466              -2.4607            -146.7832
                -2.4627             215.2509              13.0049
              -146.4660              12.9731             732.3177

 A(FC)         396.2424             396.2424             396.2424
 A(SD)        -193.9702            -183.2331             377.2033
 A(ORB+DIA)      1.3919               2.0377              -0.1418    A(PC) =   1.0959
 A(ORB)          1.3884               2.0368              -0.1411    A(PC) =   1.0947
 A(DIA)          0.0034               0.0009              -0.0007    A(PC) =   0.0012
             ----------           ----------           ----------
 A(Tot)        203.6641             215.0471             773.3039    A(iso)=  397.3384
 Orientation: 
  X          -0.9583896            0.0998609            0.2674269
  Y           0.0970830            0.9949959           -0.0236245
  Z          -0.2684478            0.0033211           -0.9632885

Notes:  (1) The A matrix conforms to the "SAI" spin Hamiltonian convention.
        (2) Tensor is right-handed.


--------------------------------------------------------------------------------
----------------------------------------------------------------------------
                           ORCA EULER ANGLE PROGRAM
----------------------------------------------------------------------------

Only g-tensor available        -->  using g-tensor as reference tensor

Reference tensor               ...  g

g-tensor ordering              ...  |g_min> --> |gx>
                                    |g_mid> --> |gy>
                                    |g_max> --> |gz>

A- and EFG-tensor ordering     ...  the axes |Ax>, |Qx>, |Ay>, etc. are assigned
                                    such that the Euler rotation is minimal. You
                                    can find the respective eigenvalues as Ax,
                                    EFGx, Ay, etc. in the tables below.
                                    The relation of |Ax>, |Ay>,  etc. to Amin, Amid, etc.
                                    (as printed in the ORCA EPR/NMR CALCULATION Output)
                                    is obtained in the detailed printout.

Euler rotation around          ...  z - y - z
   First rotation              -->  by alpha around z
   Second rotation             -->  by beta around y'
   Third rotation              -->  by gamma around z''
   Positive / Negative angle   -->  clockwise / counterclockwise rotation

Plot EFG-tensors                    (-)
Plot HFC-tensors                    (-)
Detailed Printout                   (-)

-------------------------------------------------------------------------
          Euler rotation of hyperfine tensor to g-tensor
-------------------------------------------------------------------------

-------------------------------------------------------------------
 Atom  |   Alpha    Beta    Gamma   |   Ax       Ay       Az 
       |          [degrees]         |           [MHz]         
-------------------------------------------------------------------
  0C       -0.0      0.0      0.0     863.15   665.79   665.79
  1F     -105.5      1.5     90.0     773.57   203.78   215.11
  2F     -113.6     34.7    118.0     773.32   215.05   203.66
  3F       63.8     32.2    -59.9     773.30   215.05   203.66
-------------------------------------------------------------------


Maximum memory used throughout the entire EPRNMR-calculation: 131.7 MB

Timings for individual modules:

Sum of individual times         ...      230.493 sec (=   3.842 min)
GTO integral calculation        ...        0.220 sec (=   0.004 min)   0.1 %
Spin-Orbit-Coupling Matrices    ...       41.399 sec (=   0.690 min)  18.0 %
SCF iterations                  ...        6.512 sec (=   0.109 min)   2.8 %
EPR/NMR calculation             ...      182.362 sec (=   3.039 min)  79.1 %



                             ****ORCA TERMINATED NORMALLY****
TOTAL RUN TIME: 0 days 0 hours 7 minutes 42 seconds 379 msec

slurmID:    30883860
totalRuntime[s]:    462.419331268
