
                                 *****************
                                 * O   R   C   A *
                                 *****************

                                            #,                                       
                                            ###                                      
                                            ####                                     
                                            #####                                    
                                            ######                                   
                                           ########,                                 
                                     ,,################,,,,,                         
                               ,,#################################,,                 
                          ,,##########################################,,             
                       ,#########################################, ''#####,          
                    ,#############################################,,   '####,        
                  ,##################################################,,,,####,       
                ,###########''''           ''''###############################       
              ,#####''   ,,,,##########,,,,          '''####'''          '####       
            ,##' ,,,,###########################,,,                        '##       
           ' ,,###''''                  '''############,,,                           
         ,,##''                                '''############,,,,        ,,,,,,###''
      ,#''                                            '''#######################'''  
     '                                                          ''''####''''         
             ,#######,   #######,   ,#######,      ##                                
            ,#'     '#,  ##    ##  ,#'     '#,    #''#        ######   ,####,        
            ##       ##  ##   ,#'  ##            #'  '#       #        #'  '#        
            ##       ##  #######   ##           ,######,      #####,   #    #        
            '#,     ,#'  ##    ##  '#,     ,#' ,#      #,         ##   #,  ,#        
             '#######'   ##     ##  '#######'  #'      '#     #####' # '####'        



                  #######################################################
                  #                        -***-                        #
                  #          Department of theory and spectroscopy      #
                  #    Directorship and core code : Frank Neese         #
                  #        Max Planck Institute fuer Kohlenforschung    #
                  #                Kaiser Wilhelm Platz 1               #
                  #                 D-45470 Muelheim/Ruhr               #
                  #                      Germany                        #
                  #                                                     #
                  #                  All rights reserved                #
                  #                        -***-                        #
                  #######################################################


                         Program Version 5.0.4 -  RELEASE  -


 With contributions from (in alphabetic order):
   Daniel Aravena         : Magnetic Suceptibility
   Michael Atanasov       : Ab Initio Ligand Field Theory (pilot matlab implementation)
   Alexander A. Auer      : GIAO ZORA, VPT2 properties, NMR spectrum
   Ute Becker             : Parallelization
   Giovanni Bistoni       : ED, misc. LED, open-shell LED, HFLD
   Martin Brehm           : Molecular dynamics
   Dmytro Bykov           : SCF Hessian
   Vijay G. Chilkuri      : MRCI spin determinant printing, contributions to CSF-ICE
   Dipayan Datta          : RHF DLPNO-CCSD density
   Achintya Kumar Dutta   : EOM-CC, STEOM-CC
   Dmitry Ganyushin       : Spin-Orbit,Spin-Spin,Magnetic field MRCI
   Miquel Garcia          : C-PCM and meta-GGA Hessian, CC/C-PCM, Gaussian charge scheme
   Yang Guo               : DLPNO-NEVPT2, F12-NEVPT2, CIM, IAO-localization
   Andreas Hansen         : Spin unrestricted coupled pair/coupled cluster methods
   Benjamin Helmich-Paris : MC-RPA, TRAH-SCF, COSX integrals
   Lee Huntington         : MR-EOM, pCC
   Robert Izsak           : Overlap fitted RIJCOSX, COSX-SCS-MP3, EOM
   Marcus Kettner         : VPT2
   Christian Kollmar      : KDIIS, OOCD, Brueckner-CCSD(T), CCSD density, CASPT2, CASPT2-K
   Simone Kossmann        : Meta GGA functionals, TD-DFT gradient, OOMP2, MP2 Hessian
   Martin Krupicka        : Initial AUTO-CI
   Lucas Lang             : DCDCAS
   Marvin Lechner         : AUTO-CI (C++ implementation), FIC-MRCC
   Dagmar Lenk            : GEPOL surface, SMD
   Dimitrios Liakos       : Extrapolation schemes; Compound Job, initial MDCI parallelization
   Dimitrios Manganas     : Further ROCIS development; embedding schemes
   Dimitrios Pantazis     : SARC Basis sets
   Anastasios Papadopoulos: AUTO-CI, single reference methods and gradients
   Taras Petrenko         : DFT Hessian,TD-DFT gradient, ASA, ECA, R-Raman, ABS, FL, XAS/XES, NRVS
   Peter Pinski           : DLPNO-MP2, DLPNO-MP2 Gradient
   Christoph Reimann      : Effective Core Potentials
   Marius Retegan         : Local ZFS, SOC
   Christoph Riplinger    : Optimizer, TS searches, QM/MM, DLPNO-CCSD(T), (RO)-DLPNO pert. Triples
   Tobias Risthaus        : Range-separated hybrids, TD-DFT gradient, RPA, STAB
   Michael Roemelt        : Original ROCIS implementation
   Masaaki Saitow         : Open-shell DLPNO-CCSD energy and density
   Barbara Sandhoefer     : DKH picture change effects
   Avijit Sen             : IP-ROCIS
   Kantharuban Sivalingam : CASSCF convergence, NEVPT2, FIC-MRCI
   Bernardo de Souza      : ESD, SOC TD-DFT
   Georgi Stoychev        : AutoAux, RI-MP2 NMR, DLPNO-MP2 response
   Willem Van den Heuvel  : Paramagnetic NMR
   Boris Wezisla          : Elementary symmetry handling
   Frank Wennmohs         : Technical directorship


 We gratefully acknowledge several colleagues who have allowed us to
 interface, adapt or use parts of their codes:
   Stefan Grimme, W. Hujo, H. Kruse, P. Pracht,  : VdW corrections, initial TS optimization,
                  C. Bannwarth, S. Ehlert          DFT functionals, gCP, sTDA/sTD-DF
   Ed Valeev, F. Pavosevic, A. Kumar             : LibInt (2-el integral package), F12 methods
   Garnet Chan, S. Sharma, J. Yang, R. Olivares  : DMRG
   Ulf Ekstrom                                   : XCFun DFT Library
   Mihaly Kallay                                 : mrcc  (arbitrary order and MRCC methods)
   Jiri Pittner, Ondrej Demel                    : Mk-CCSD
   Frank Weinhold                                : gennbo (NPA and NBO analysis)
   Christopher J. Cramer and Donald G. Truhlar   : smd solvation model
   Lars Goerigk                                  : TD-DFT with DH, B97 family of functionals
   V. Asgeirsson, H. Jonsson                     : NEB implementation
   FAccTs GmbH                                   : IRC, NEB, NEB-TS, DLPNO-Multilevel, CI-OPT
                                                   MM, QMMM, 2- and 3-layer-ONIOM, Crystal-QMMM,
                                                   LR-CPCM, SF, NACMEs, symmetry and pop. for TD-DFT,
                                                   nearIR, NL-DFT gradient (VV10), updates on ESD,
                                                   ML-optimized integration grids
   S Lehtola, MJT Oliveira, MAL Marques          : LibXC Library
   Liviu Ungur et al                             : ANISO software


 Your calculation uses the libint2 library for the computation of 2-el integrals
 For citations please refer to: http://libint.valeyev.net

 Your ORCA version has been built with support for libXC version: 5.1.0
 For citations please refer to: https://tddft.org/programs/libxc/

 This ORCA versions uses:
   CBLAS   interface :  Fast vector & matrix operations
   LAPACKE interface :  Fast linear algebra routines
   SCALAPACK package :  Parallel linear algebra routines
   Shared memory     :  Shared parallel matrices
   BLAS/LAPACK       :  OpenBLAS 0.3.15  USE64BITINT DYNAMIC_ARCH NO_AFFINITY SkylakeX SINGLE_THREADED
        Core in use  :  SkylakeX
   Copyright (c) 2011-2014, The OpenBLAS Project


================================================================================

----- Orbital basis set information -----
Your calculation utilizes the basis: aug-cc-pVTZ-J 
  Obtained from the EMSL Basis Set Exchange (bse.pnl.gov) Feb. 2017
  H, C-O : P. F. Provasi, G. A. Aucar, S. P. A. Sauer, J. Chem. Phys. 115, 1324 (2001)
           R. A. Kendall, T. H. Dunning, Jr., R. J. Harrison, J. Chem. Phys. 96, 6796 (1992)
           T. Enevoldsen, J. Oddershede, S. P. A. Sauer, Theor. Chem. Acc. 100, 275 (1998)
           T. H. Dunning, Jr., J. Chem. Phys. 90, 1007 (1989)
       B : P. F. Provasi, S. P. A. Sauer, J. Chem. Phys. 133, 054308 (2010)
           T. Enevoldsen, J. Oddershede, S. P. A. Sauer, Theor. Chem. Acc. 100, 275 (1998)
           T. H. Dunning, Jr., J. Chem. Phys. 90, 1007 (1989)
       F : R. A. Kendall, T. H. Dunning, Jr., R. J. Harrison, J. Chem. Phys. 96, 6796 (1992)
           T. Enevoldsen, J. Oddershede, S. P. A. Sauer, Theor. Chem. Acc. 100, 275 (1998)
           T. H. Dunning, Jr., J. Chem. Phys. 90, 1007 (1989)
           V. Barone, P. F. Provasi, J. E. Peralta, J. P. Snyder, S. P. A. Sauer, R. H. Contreras, J. Phys. Chem. A 107, 4748 (2003)
      Al : D. E. Woon, T. H. Dunning, Jr., J. Chem. Phys. 98, 1358 (1993)
           P. F. Provasi, S. P. A. Sauer, J. Chem. Phys. 133, 054308 (2010)
           T. Enevoldsen, J. Oddershede, S. P. A. Sauer, Theor. Chem. Acc. 100, 275 (1998)
      Si : D. E. Woon, T. H. Dunning, Jr., J. Chem. Phys. 98, 1358 (1993)
           P. F. Provasi, S. P. A. Sauer, J. Chem. Phys. 133, 054308 (2010)
           S. P. A. Sauer, W. T. Raynes, J. Chem. Phys. 113, 3121 (2000)
           S. P. A. Sauer, W. T. Raynes, R. A. Nicholls, J. Chem. Phys. 115, 5994 (2001)
   P, Cl : D. E. Woon, T. H. Dunning, Jr., J. Chem. Phys. 98, 1358 (1993)
           P. F. Provasi, S. P. A. Sauer, J. Chem. Phys. 133, 054308 (2010)
       S : D. E. Woon, T. H. Dunning, Jr., J. Chem. Phys. 98, 1358 (1993)
           P. F. Provasi, G. A. Aucar, S. P. A. Sauer, J. Chem. Phys. 115, 1324 (2001)
   Sc-Zn : E. D. Hedegård, J. Kongsted, S. P. A. Sauer, J. Chem. Theory Comput. 7, 4077 (2011)
           N. B. Balabanov, K. A. Peterson, J. Chem. Phys. 123, 64107 (2005)
      Se : Y. Yu. Rusakov, L. B. Krivdin, S. P. A. Sauer, E. P. Levanova, G. G. Levkovskaya, Magn. Res. Chem. 48, 44-52 (2010)

================================================================================
                                        WARNINGS
                       Please study these warnings very carefully!
================================================================================


WARNING: Geometry Optimization
  ===> : Switching off AutoStart
         For restart on a previous wavefunction, please use MOREAD

INFO   : the flag for use of the SHARK integral package has been found!



***************************************
The coordinates will be read from file: 
***************************************


================================================================================

----- Orbital basis set information -----
Your calculation utilizes the basis: aug-cc-pVTZ-J 
  Obtained from the EMSL Basis Set Exchange (bse.pnl.gov) Feb. 2017
  H, C-O : P. F. Provasi, G. A. Aucar, S. P. A. Sauer, J. Chem. Phys. 115, 1324 (2001)
           R. A. Kendall, T. H. Dunning, Jr., R. J. Harrison, J. Chem. Phys. 96, 6796 (1992)
           T. Enevoldsen, J. Oddershede, S. P. A. Sauer, Theor. Chem. Acc. 100, 275 (1998)
           T. H. Dunning, Jr., J. Chem. Phys. 90, 1007 (1989)
       B : P. F. Provasi, S. P. A. Sauer, J. Chem. Phys. 133, 054308 (2010)
           T. Enevoldsen, J. Oddershede, S. P. A. Sauer, Theor. Chem. Acc. 100, 275 (1998)
           T. H. Dunning, Jr., J. Chem. Phys. 90, 1007 (1989)
       F : R. A. Kendall, T. H. Dunning, Jr., R. J. Harrison, J. Chem. Phys. 96, 6796 (1992)
           T. Enevoldsen, J. Oddershede, S. P. A. Sauer, Theor. Chem. Acc. 100, 275 (1998)
           T. H. Dunning, Jr., J. Chem. Phys. 90, 1007 (1989)
           V. Barone, P. F. Provasi, J. E. Peralta, J. P. Snyder, S. P. A. Sauer, R. H. Contreras, J. Phys. Chem. A 107, 4748 (2003)
      Al : D. E. Woon, T. H. Dunning, Jr., J. Chem. Phys. 98, 1358 (1993)
           P. F. Provasi, S. P. A. Sauer, J. Chem. Phys. 133, 054308 (2010)
           T. Enevoldsen, J. Oddershede, S. P. A. Sauer, Theor. Chem. Acc. 100, 275 (1998)
      Si : D. E. Woon, T. H. Dunning, Jr., J. Chem. Phys. 98, 1358 (1993)
           P. F. Provasi, S. P. A. Sauer, J. Chem. Phys. 133, 054308 (2010)
           S. P. A. Sauer, W. T. Raynes, J. Chem. Phys. 113, 3121 (2000)
           S. P. A. Sauer, W. T. Raynes, R. A. Nicholls, J. Chem. Phys. 115, 5994 (2001)
   P, Cl : D. E. Woon, T. H. Dunning, Jr., J. Chem. Phys. 98, 1358 (1993)
           P. F. Provasi, S. P. A. Sauer, J. Chem. Phys. 133, 054308 (2010)
       S : D. E. Woon, T. H. Dunning, Jr., J. Chem. Phys. 98, 1358 (1993)
           P. F. Provasi, G. A. Aucar, S. P. A. Sauer, J. Chem. Phys. 115, 1324 (2001)
   Sc-Zn : E. D. Hedegård, J. Kongsted, S. P. A. Sauer, J. Chem. Theory Comput. 7, 4077 (2011)
           N. B. Balabanov, K. A. Peterson, J. Chem. Phys. 123, 64107 (2005)
      Se : Y. Yu. Rusakov, L. B. Krivdin, S. P. A. Sauer, E. P. Levanova, G. G. Levkovskaya, Magn. Res. Chem. 48, 44-52 (2010)

================================================================================
                                        WARNINGS
                       Please study these warnings very carefully!
================================================================================


INFO   : the flag for use of the SHARK integral package has been found!

================================================================================
                                       INPUT FILE
================================================================================
NAME = /beegfs/scratch/jdstates/Radical_Geometry/CX3_geometry_calcs/input_files/CX3_radical/C-Cl-F-F_radical_IN-PROGRESS/C-Cl-F-F_radical.inp
|  1> # Formula: C-Cl-F-F_radical
|  2> 
|  3> ! UKS NORI TightSCF PBE0 aug-cc-PVTZ-J xyzfile opt NOPOP
|  4> %base "C-Cl-F-F_radical_opt" 
|  5> 
|  6> * xyz 0 2
|  7> C	-0.136	-0.007	0.385
|  8> Cl	1.584	-0.057	-0.098
|  9> F	-0.654	1.166	-0.140
| 10> F	-0.794	-1.102	-0.146
| 11> *
| 12> 
| 13> $new_job
| 14> ! UKS NORI PBE0 aug-cc-PVTZ-J NBO
| 15> %base "C-Cl-F-F_radical_EPR"
| 16> 
| 17> *xyzfile 0 2
| 18> 
| 19> %EPRNMR
| 20> 	GTENSOR		TRUE
| 21> 	NUCLEI		= ALL C  {AISO, ADIP, AORB}
| 22> 	NUCLEI		= ALL H  {AISO, ADIP, AORB}
| 23> 	NUCLEI		= ALL F  {AISO, ADIP, AORB}
| 24> 	NUCLEI		= ALL Cl {AISO, ADIP, AORB}
| 25> 	NUCLEI		= ALL Br {AISO, ADIP, AORB}
| 26> 	NUCLEI		= ALL I  {AISO, ADIP, AORB}
| 27> END
| 28> 
| 29> %NBO
| 30> 	NBOKEYLIST = "$NBO NBO NPA AONBO=C PRINT=1 ARCHIVE $END"
| 31> END
| 32> 
| 33>                          ****END OF INPUT****
================================================================================


                 $$$$$$$$$$$$$$$$$$$$$$$$$$$$$$$$$$$$$$$$$$$$$$ 
                 $ THERE ARE  2 JOBS TO BE PROCESSED THIS RUN $
                 $$$$$$$$$$$$$$$$$$$$$$$$$$$$$$$$$$$$$$$$$$$$$$ 




                 $$$$$$$$$$$$$$$$  JOB NUMBER  1 $$$$$$$$$$$$$$


                       *****************************
                       * Geometry Optimization Run *
                       *****************************

Geometry optimization settings:
Update method            Update   .... BFGS
Choice of coordinates    CoordSys .... Z-matrix Internals
Initial Hessian          InHess   .... Almoef's Model

Convergence Tolerances:
Energy Change            TolE     ....  5.0000e-06 Eh
Max. Gradient            TolMAXG  ....  3.0000e-04 Eh/bohr
RMS Gradient             TolRMSG  ....  1.0000e-04 Eh/bohr
Max. Displacement        TolMAXD  ....  4.0000e-03 bohr
RMS Displacement         TolRMSD  ....  2.0000e-03 bohr
Strict Convergence                ....  False
------------------------------------------------------------------------------
                        ORCA OPTIMIZATION COORDINATE SETUP
------------------------------------------------------------------------------

The optimization will be done in new redundant internal coordinates
Making redundant internal coordinates   ...  (new redundants) done
Evaluating the initial hessian          ...  (Almloef) done
Evaluating the coordinates              ...  done
Calculating the B-matrix                .... done
Calculating the G-matrix                .... done
Diagonalizing the G-matrix              .... done
The first mode is                       ....    1
The number of degrees of freedom        ....    6

    -----------------------------------------------------------------
                    Redundant Internal Coordinates


    -----------------------------------------------------------------
         Definition                    Initial Value    Approx d2E/dq
    -----------------------------------------------------------------
      1. B(Cl  1,C   0)                  1.7872         0.325822   
      2. B(F   2,C   0)                  1.3856         0.528436   
      3. B(F   3,C   0)                  1.3835         0.532608   
      4. A(Cl  1,C   0,F   3)          109.3816         0.389651   
      5. A(F   2,C   0,F   3)          110.2927         0.401765   
      6. A(Cl  1,C   0,F   2)          106.3241         0.389116   
      7. I(Cl  1,F   3,F   2,C   0)     57.5099         0.004780   
    -----------------------------------------------------------------

Number of atoms                         .... 4
Number of degrees of freedom            .... 7

         *************************************************************
         *                GEOMETRY OPTIMIZATION CYCLE   1            *
         *************************************************************
---------------------------------
CARTESIAN COORDINATES (ANGSTROEM)
---------------------------------
  C     -0.136000   -0.007000    0.385000
  Cl     1.584000   -0.057000   -0.098000
  F     -0.654000    1.166000   -0.140000
  F     -0.794000   -1.102000   -0.146000

----------------------------
CARTESIAN COORDINATES (A.U.)
----------------------------
  NO LB      ZA    FRAG     MASS         X           Y           Z
   0 C     6.0000    0    12.011   -0.257003   -0.013228    0.727545
   1 Cl   17.0000    0    35.453    2.993326   -0.107714   -0.185193
   2 F     9.0000    0    18.998   -1.235881    2.203421   -0.264562
   3 F     9.0000    0    18.998   -1.500443   -2.082478   -0.275900

--------------------------------
INTERNAL COORDINATES (ANGSTROEM)
--------------------------------
 C      0   0   0     0.000000000000     0.00000000     0.00000000
 Cl     1   0   0     1.787229420080     0.00000000     0.00000000
 F      1   2   0     1.385596622398   106.32405532     0.00000000
 F      1   2   3     1.383455817871   109.38160032   119.08634411

---------------------------
INTERNAL COORDINATES (A.U.)
---------------------------
 C      0   0   0     0.000000000000     0.00000000     0.00000000
 Cl     1   0   0     3.377374142438     0.00000000     0.00000000
 F      1   2   0     2.618398148418   106.32405532     0.00000000
 F      1   2   3     2.614352614155   109.38160032   119.08634411

---------------------
BASIS SET INFORMATION
---------------------
There are 3 groups of distinct atoms

 Group   1 Type C   : 15s6p3d1f contracted to 9s5p3d1f pattern {711111111/21111/111/1}
 Group   2 Type Cl  : 32s15p6d1f contracted to 10s7p6d1f pattern {121211111111/5511111/111111/1}
 Group   3 Type F   : 15s6p3d1f contracted to 9s5p3d1f pattern {711111111/21111/111/1}

Atom   0C    basis set group =>   1
Atom   1Cl   basis set group =>   2
Atom   2F    basis set group =>   3
Atom   3F    basis set group =>   3
------------------------------------------------------------------------------
                           ORCA GTO INTEGRAL CALCULATION
------------------------------------------------------------------------------
------------------------------------------------------------------------------
                   ___                                                        
                  /   \      - P O W E R E D   B Y -                         
                 /     \                                                     
                 |  |  |   _    _      __       _____    __    __             
                 |  |  |  | |  | |    /  \     |  _  \  |  |  /  |          
                  \  \/   | |  | |   /    \    | | | |  |  | /  /          
                 / \  \   | |__| |  /  /\  \   | |_| |  |  |/  /          
                |  |  |   |  __  | /  /__\  \  |    /   |      \           
                |  |  |   | |  | | |   __   |  |    \   |  |\   \          
                \     /   | |  | | |  |  |  |  | |\  \  |  | \   \       
                 \___/    |_|  |_| |__|  |__|  |_| \__\ |__|  \__/        
                                                                              
                      - O R C A' S   B I G   F R I E N D -                    
                                      &                                       
                       - I N T E G R A L  F E E D E R -                       
                                                                              
 v1 FN, 2020, v2 2021                                                         
------------------------------------------------------------------------------


Reading SHARK input file C-Cl-F-F_radical_opt.SHARKINP.tmp ... ok
----------------------
SHARK INTEGRAL PACKAGE
----------------------

Number of atoms                             ...      4
Number of basis functions                   ...    225
Number of shells                            ...     91
Maximum angular momentum                    ...      3
Integral batch strategy                     ... SHARK/LIBINT Hybrid
RI-J (if used) integral strategy            ... SPLIT-RIJ (Revised 2003 algorithm where possible)
Printlevel                                  ...      1
Contraction scheme used                     ... PARTIAL GENERAL contraction
Coulomb Range Separation                    ... NOT USED
Exchange Range Separation                   ... NOT USED
Finite Nucleus Model                        ... NOT USED
Auxiliary Coulomb fitting basis             ... NOT available
Auxiliary J/K fitting basis                 ... NOT available
Auxiliary Correlation fitting basis         ... NOT available
Auxiliary 'external' fitting basis          ... NOT available
Integral threshold                          ...     2.500000e-11
Primitive cut-off                           ...     2.500000e-12
Primitive pair pre-selection threshold      ...     2.500000e-12

Calculating pre-screening integrals         ... done (  0.0 sec) Dimension = 91
Calculating pre-screening integrals (ORCA)  ... done (  0.1 sec) Dimension = 78
Organizing shell pair data                  ... done (  0.0 sec)
Shell pair information
Total number of shell pairs                 ...      4186
Shell pairs after pre-screening             ...      3397
Total number of primitive shell pairs       ...      6394
Primitive shell pairs kept                  ...      4646
          la=0 lb=0:    775 shell pairs
          la=1 lb=0:    961 shell pairs
          la=1 lb=1:    294 shell pairs
          la=2 lb=0:    605 shell pairs
          la=2 lb=1:    347 shell pairs
          la=2 lb=2:    114 shell pairs
          la=3 lb=0:    145 shell pairs
          la=3 lb=1:     90 shell pairs
          la=3 lb=2:     56 shell pairs
          la=3 lb=3:     10 shell pairs

Calculating one electron integrals          ... done (  0.0 sec)
Calculating Nuclear repulsion               ... done (  0.0 sec) ENN=    153.249373827981 Eh

SHARK setup successfully completed in   0.3 seconds

Maximum memory used throughout the entire GTOINT-calculation: 39.4 MB
-------------------------------------------------------------------------------
                                 ORCA SCF
-------------------------------------------------------------------------------

------------
SCF SETTINGS
------------
Hamiltonian:
 Density Functional     Method          .... DFT(GTOs)
 Exchange Functional    Exchange        .... PBE
   PBE kappa parameter   XKappa         ....  0.804000
   PBE mue parameter    XMuePBE         ....  0.219520
 Correlation Functional Correlation     .... PBE
   PBE beta parameter  CBetaPBE         ....  0.066725
 LDA part of GGA corr.  LDAOpt          .... PW91-LDA
 Gradients option       PostSCFGGA      .... off
 Hybrid DFT is turned on
   Fraction HF Exchange ScalHFX         ....  0.250000
   Scaling of DF-GGA-X  ScalDFX         ....  0.750000
   Scaling of DF-GGA-C  ScalDFC         ....  1.000000
   Scaling of DF-LDA-C  ScalLDAC        ....  1.000000
   Perturbative correction              ....  0.000000
   Density functional embedding theory  .... OFF
   NL short-range parameter             ....  6.900000


General Settings:
 Integral files         IntName         .... C-Cl-F-F_radical_opt
 Hartree-Fock type      HFTyp           .... UHF
 Total Charge           Charge          ....    0
 Multiplicity           Mult            ....    2
 Number of Electrons    NEL             ....   41
 Basis Dimension        Dim             ....  206
 Nuclear Repulsion      ENuc            ....    153.2493738280 Eh

Convergence Acceleration:
 DIIS                   CNVDIIS         .... on
   Start iteration      DIISMaxIt       ....    12
   Startup error        DIISStart       ....  0.200000
   # of expansion vecs  DIISMaxEq       ....     5
   Bias factor          DIISBfac        ....   1.050
   Max. coefficient     DIISMaxC        ....  10.000
 Trust-Rad. Augm. Hess. CNVTRAH         .... auto
   Auto Start mean grad. ratio tolernc. ....  1.125000
   Auto Start start iteration           ....    20
   Auto Start num. interpolation iter.  ....    10
   Max. Number of Micro iterations      ....    16
   Max. Number of Macro iterations      .... Maxiter - #DIIS iter
   Number of Davidson start vectors     ....     2
   Converg. threshold I  (grad. norm)   ....   1.000e-05
   Converg. threshold II (energy diff.) ....   1.000e-08
   Grad. Scal. Fac. for Micro threshold ....   0.100
   Minimum threshold for Micro iter.    ....   0.010
   NR start threshold (gradient norm)   ....   0.001
   Initial trust radius                 ....   0.400
   Minimum AH scaling param. (alpha)    ....   1.000
   Maximum AH scaling param. (alpha)    .... 1000.000
   Orbital update algorithm             .... Taylor
   White noise on init. David. guess    .... on
   Maximum white noise                  ....   0.010
   Quad. conv. algorithm                .... NR
 SOSCF                  CNVSOSCF        .... off
 Level Shifting         CNVShift        .... on
   Level shift para.    LevelShift      ....    0.2500
   Turn off err/grad.   ShiftErr        ....    0.0010
 Zerner damping         CNVZerner       .... off
 Static damping         CNVDamp         .... on
   Fraction old density DampFac         ....    0.7000
   Max. Damping (<1)    DampMax         ....    0.9800
   Min. Damping (>=0)   DampMin         ....    0.0000
   Turn off err/grad.   DampErr         ....    0.1000
 Fernandez-Rico         CNVRico         .... off

SCF Procedure:
 Maximum # iterations   MaxIter         ....   125
 SCF integral mode      SCFMode         .... Direct
   Integral package                     .... SHARK and LIBINT hybrid scheme
 Reset frequency        DirectResetFreq ....    20
 Integral Threshold     Thresh          ....  2.500e-11 Eh
 Primitive CutOff       TCut            ....  2.500e-12 Eh

Convergence Tolerance:
 Convergence Check Mode ConvCheckMode   .... Total+1el-Energy
 Convergence forced     ConvForced      .... 0
 Energy Change          TolE            ....  1.000e-08 Eh
 1-El. energy change                    ....  1.000e-05 Eh
 DIIS Error             TolErr          ....  5.000e-07


Diagonalization of the overlap matrix:
Smallest eigenvalue                        ... 7.704e-05
Time for diagonalization                   ...    0.012 sec
Threshold for overlap eigenvalues          ... 1.000e-08
Number of eigenvalues below threshold      ... 0
Time for construction of square roots      ...    0.005 sec
Total time needed                          ...    0.018 sec

Time for model grid setup =    0.092 sec

------------------------------
INITIAL GUESS: MODEL POTENTIAL
------------------------------
Loading Hartree-Fock densities                     ... done
Calculating cut-offs                               ... done
Initializing the effective Hamiltonian             ... done
Setting up the integral package (SHARK)            ... done
Starting the Coulomb interaction                   ... done (   0.1 sec)
Reading the grid                                   ... done
Mapping shells                                     ... done
Starting the XC term evaluation                    ... done (   0.1 sec)
  promolecular density results
     # of electrons  =     41.000543916
     EX              =    -52.419726762
     EC              =     -1.489203450
     EX+EC           =    -53.908930212
Transforming the Hamiltonian                       ... done (   0.0 sec)
Diagonalizing the Hamiltonian                      ... done (   0.0 sec)
Back transforming the eigenvectors                 ... done (   0.0 sec)
Now organizing SCF variables                       ... done
                      ------------------
                      INITIAL GUESS DONE (   0.3 sec)
                      ------------------
-------------------
DFT GRID GENERATION
-------------------

General Integration Accuracy     IntAcc      ... 4.388
Radial Grid Type                 RadialGrid  ... OptM3 with GC (2021)
Angular Grid (max. ang.)         AngularGrid ... 4 (Lebedev-302)
Angular grid pruning method      GridPruning ... 4 (adaptive)
Weight generation scheme         WeightScheme... Becke
Basis function cutoff            BFCut       ... 1.0000e-11
Integration weight cutoff        WCut        ... 1.0000e-14
Angular grids for H and He will be reduced by one unit
Partially contracted basis set               ... off
Rotationally invariant grid construction     ... off

Total number of grid points                  ...    26996
Total number of batches                      ...      424
Average number of points per batch           ...       63
Average number of grid points per atom       ...     6749
Time for grid setup =    0.281 sec

--------------
SCF ITERATIONS
--------------
ITER       Energy         Delta-E        Max-DP      RMS-DP      [F,P]     Damp
               ***  Starting incremental Fock matrix formation  ***
  0   -697.5984066173   0.000000000000 0.02257159  0.00035328  0.0827796 0.7000
  1   -697.6217042012  -0.023297583924 0.01549741  0.00023179  0.0563658 0.7000
                               ***Turning on DIIS***
  2   -697.6297561321  -0.008051930899 0.03557691  0.00046241  0.0388908 0.0000
  3   -697.6470574788  -0.017301346708 0.01441982  0.00013528  0.0126037 0.0000
  4   -697.6489751379  -0.001917659117 0.00584683  0.00005744  0.0062352 0.0000
  5   -697.6495300285  -0.000554890639 0.00310124  0.00003382  0.0027543 0.0000
  6   -697.6496248653  -0.000094836714 0.00162458  0.00001950  0.0015307 0.0000
  7   -697.6496561558  -0.000031290557 0.00131126  0.00002060  0.0008640 0.0000
  8   -697.6496710226  -0.000014866806 0.00031637  0.00000490  0.0001737 0.0000
  9   -697.6496720347  -0.000001012040 0.00010120  0.00000118  0.0000585 0.0000
 10   -697.6496721249  -0.000000090241 0.00004112  0.00000060  0.0000299 0.0000
 11   -697.6496721422  -0.000000017333 0.00001118  0.00000016  0.0000133 0.0000
 12   -697.6496721437  -0.000000001472 0.00000615  0.00000010  0.0000109 0.0000
 13   -697.6496721443  -0.000000000566 0.00000210  0.00000004  0.0000057 0.0000
 14   -697.6496721450  -0.000000000706 0.00000142  0.00000003  0.0000014 0.0000
                            ***DIIS convergence achieved***

               *****************************************************
               *                     SUCCESS                       *
               *           SCF CONVERGED AFTER  15 CYCLES          *
               *****************************************************


----------------
TOTAL SCF ENERGY
----------------

Total Energy       :         -697.64967215 Eh          -18984.01271 eV

Components:
Nuclear Repulsion  :          153.24937383 Eh            4170.12747 eV
Electronic Energy  :         -850.89904597 Eh          -23154.14017 eV
One Electron Energy:        -1269.41230207 Eh          -34542.46484 eV
Two Electron Energy:          418.51325610 Eh           11388.32467 eV

Virial components:
Potential Energy   :        -1393.62818849 Eh          -37922.55095 eV
Kinetic Energy     :          695.97851635 Eh           18938.53825 eV
Virial Ratio       :            2.00240116


DFT components:
N(Alpha)           :       20.999985127787 electrons
N(Beta)            :       19.999995721884 electrons
N(Total)           :       40.999980849671 electrons
E(X)               :      -39.426037206403 Eh       
E(C)               :       -1.483976250773 Eh       
E(XC)              :      -40.910013457176 Eh       
DFET-embed. en.    :        0.000000000000 Eh       

---------------
SCF CONVERGENCE
---------------

  Last Energy change         ...   -2.2783e-10  Tolerance :   1.0000e-08
  Last MAX-Density change    ...    9.4354e-07  Tolerance :   1.0000e-07
  Last RMS-Density change    ...    1.8168e-08  Tolerance :   5.0000e-09
  Last DIIS Error            ...    5.6412e-07  Tolerance :   5.0000e-07

             **** THE GBW FILE WAS UPDATED (C-Cl-F-F_radical_opt.gbw) ****
             **** DENSITY C-Cl-F-F_radical_opt.scfp WAS UPDATED ****
             **** ENERGY FILE WAS UPDATED (C-Cl-F-F_radical_opt.en.tmp) ****
----------------------
UHF SPIN CONTAMINATION
----------------------

Warning: in a DFT calculation there is little theoretical justification to 
         calculate <S**2> as in Hartree-Fock theory. We will do it anyways
         but you should keep in mind that the values have only limited relevance

Expectation value of <S**2>     :     0.753507
Ideal value S*(S+1) for S=0.5   :     0.750000
Deviation                       :     0.003507

             **** THE GBW FILE WAS UPDATED (C-Cl-F-F_radical_opt.gbw) ****
             **** DENSITY C-Cl-F-F_radical_opt.scfp WAS UPDATED ****
----------------
ORBITAL ENERGIES
----------------
                 SPIN UP ORBITALS
  NO   OCC          E(Eh)            E(eV) 
   0   1.0000    -101.750970     -2768.7847 
   1   1.0000     -24.840956      -675.9568 
   2   1.0000     -24.837801      -675.8709 
   3   1.0000     -10.491567      -285.4901 
   4   1.0000      -9.575891      -260.5732 
   5   1.0000      -7.311117      -198.9456 
   6   1.0000      -7.301799      -198.6920 
   7   1.0000      -7.300760      -198.6638 
   8   1.0000      -1.328301       -36.1449 
   9   1.0000      -1.278657       -34.7940 
  10   1.0000      -0.916122       -24.9290 
  11   1.0000      -0.722998       -19.6738 
  12   1.0000      -0.613891       -16.7048 
  13   1.0000      -0.574794       -15.6409 
  14   1.0000      -0.569359       -15.4931 
  15   1.0000      -0.497303       -13.5323 
  16   1.0000      -0.473090       -12.8734 
  17   1.0000      -0.467708       -12.7270 
  18   1.0000      -0.385277       -10.4839 
  19   1.0000      -0.369977       -10.0676 
  20   1.0000      -0.315940        -8.5972 
  21   0.0000      -0.015176        -0.4130 
  22   0.0000       0.017027         0.4633 
  23   0.0000       0.037729         1.0267 
  24   0.0000       0.039616         1.0780 
  25   0.0000       0.046340         1.2610 
  26   0.0000       0.071320         1.9407 
  27   0.0000       0.083465         2.2712 
  28   0.0000       0.091268         2.4835 
  29   0.0000       0.107699         2.9306 
  30   0.0000       0.115639         3.1467 
  31   0.0000       0.136160         3.7051 
  32   0.0000       0.147940         4.0257 
  33   0.0000       0.180646         4.9156 
  34   0.0000       0.193518         5.2659 
  35   0.0000       0.203571         5.5394 
  36   0.0000       0.218181         5.9370 
  37   0.0000       0.227616         6.1938 
  38   0.0000       0.237574         6.4647 
  39   0.0000       0.242165         6.5897 
  40   0.0000       0.281132         7.6500 
  41   0.0000       0.281895         7.6708 
  42   0.0000       0.291641         7.9360 
  43   0.0000       0.312674         8.5083 
  44   0.0000       0.315339         8.5808 
  45   0.0000       0.332856         9.0575 
  46   0.0000       0.366659         9.9773 
  47   0.0000       0.399519        10.8715 
  48   0.0000       0.406245        11.0545 
  49   0.0000       0.420947        11.4546 
  50   0.0000       0.478668        13.0252 
  51   0.0000       0.557681        15.1753 
  52   0.0000       0.558975        15.2105 
  53   0.0000       0.573295        15.6002 
  54   0.0000       0.630439        17.1551 
  55   0.0000       0.642986        17.4965 
  56   0.0000       0.651447        17.7268 
  57   0.0000       0.671036        18.2598 
  58   0.0000       0.673656        18.3311 
  59   0.0000       0.687017        18.6947 
  60   0.0000       0.691730        18.8229 
  61   0.0000       0.728594        19.8261 
  62   0.0000       0.794238        21.6123 
  63   0.0000       0.813513        22.1368 
  64   0.0000       0.842803        22.9338 
  65   0.0000       0.866323        23.5738 
  66   0.0000       0.876324        23.8460 
  67   0.0000       0.911187        24.7947 
  68   0.0000       0.931344        25.3432 
  69   0.0000       0.939023        25.5521 
  70   0.0000       1.002931        27.2911 
  71   0.0000       1.019241        27.7350 
  72   0.0000       1.020488        27.7689 
  73   0.0000       1.027630        27.9632 
  74   0.0000       1.057304        28.7707 
  75   0.0000       1.097523        29.8651 
  76   0.0000       1.115630        30.3578 
  77   0.0000       1.240115        33.7452 
  78   0.0000       1.284924        34.9646 
  79   0.0000       1.326150        36.0864 
  80   0.0000       1.348720        36.7005 
  81   0.0000       1.371275        37.3143 
  82   0.0000       1.473934        40.1078 
  83   0.0000       1.514474        41.2109 
  84   0.0000       1.725241        46.9462 
  85   0.0000       1.784129        48.5486 
  86   0.0000       1.947149        52.9846 
  87   0.0000       2.017775        54.9064 
  88   0.0000       2.043991        55.6198 
  89   0.0000       2.053632        55.8822 
  90   0.0000       2.062897        56.1343 
  91   0.0000       2.067040        56.2470 
  92   0.0000       2.073076        56.4113 
  93   0.0000       2.077308        56.5264 
  94   0.0000       2.109446        57.4010 
  95   0.0000       2.143003        58.3141 
  96   0.0000       2.195946        59.7547 
  97   0.0000       2.244928        61.0876 
  98   0.0000       2.263358        61.5891 
  99   0.0000       2.308478        62.8169 
 100   0.0000       2.332119        63.4602 
 101   0.0000       2.336246        63.5725 
 102   0.0000       2.405976        65.4699 
 103   0.0000       2.436781        66.3082 
 104   0.0000       2.443414        66.4887 
 105   0.0000       2.511486        68.3410 
 106   0.0000       2.561290        69.6963 
 107   0.0000       2.588201        70.4285 
 108   0.0000       2.604006        70.8586 
 109   0.0000       2.653692        72.2106 
 110   0.0000       2.672608        72.7253 
 111   0.0000       2.711720        73.7896 
 112   0.0000       2.903918        79.0196 
 113   0.0000       3.002247        81.6953 
 114   0.0000       3.080541        83.8258 
 115   0.0000       3.122889        84.9781 
 116   0.0000       3.204331        87.1943 
 117   0.0000       3.226895        87.8083 
 118   0.0000       3.240949        88.1907 
 119   0.0000       3.351943        91.2110 
 120   0.0000       3.377733        91.9128 
 121   0.0000       3.457921        94.0948 
 122   0.0000       3.486510        94.8728 
 123   0.0000       3.520820        95.8064 
 124   0.0000       3.545082        96.4666 
 125   0.0000       3.594913        97.8226 
 126   0.0000       3.679614       100.1274 
 127   0.0000       4.296721       116.9197 
 128   0.0000       4.544665       123.6666 
 129   0.0000       4.560213       124.0897 
 130   0.0000       4.626062       125.8815 
 131   0.0000       4.671521       127.1186 
 132   0.0000       5.499505       149.6491 
 133   0.0000       5.536604       150.6587 
 134   0.0000       6.432303       175.0319 
 135   0.0000       6.474730       176.1864 
 136   0.0000       6.725229       183.0028 
 137   0.0000       6.734357       183.2512 
 138   0.0000       6.785647       184.6469 
 139   0.0000       6.802347       185.1013 
 140   0.0000       6.827406       185.7832 
 141   0.0000       6.829609       185.8431 
 142   0.0000       6.835314       185.9983 
 143   0.0000       6.853217       186.4855 
 144   0.0000       6.859363       186.6528 
 145   0.0000       6.893706       187.5873 
 146   0.0000       6.910071       188.0326 
 147   0.0000       6.931879       188.6260 
 148   0.0000       6.994953       190.3423 
 149   0.0000       7.228717       196.7034 
 150   0.0000       7.302683       198.7161 
 151   0.0000       7.339174       199.7091 
 152   0.0000       7.439058       202.4271 
 153   0.0000       7.552940       205.5260 
 154   0.0000       7.666427       208.6141 
 155   0.0000       8.709864       237.0075 
 156   0.0000       8.715212       237.1530 
 157   0.0000       8.731695       237.6015 
 158   0.0000       8.741811       237.8768 
 159   0.0000       8.760232       238.3780 
 160   0.0000       8.879616       241.6266 
 161   0.0000       8.889948       241.9078 
 162   0.0000       8.917455       242.6563 
 163   0.0000       8.965266       243.9573 
 164   0.0000       8.982964       244.4389 
 165   0.0000       9.090198       247.3569 
 166   0.0000       9.528137       259.2738 
 167   0.0000       9.832315       267.5509 
 168   0.0000       9.858472       268.2627 
 169   0.0000       9.912878       269.7431 
 170   0.0000      10.256794       279.1016 
 171   0.0000      11.945669       325.0582 
 172   0.0000      12.823098       348.9342 
 173   0.0000      20.130644       547.7827 
 174   0.0000      20.142205       548.0973 
 175   0.0000      20.192078       549.4544 
 176   0.0000      20.198220       549.6215 
 177   0.0000      20.813707       566.3697 
 178   0.0000      20.860641       567.6469 
 179   0.0000      23.865368       649.4097 
 180   0.0000      23.870073       649.5377 
 181   0.0000      23.905349       650.4976 
 182   0.0000      23.922373       650.9609 
 183   0.0000      23.982082       652.5856 
 184   0.0000      27.407322       745.7912 
 185   0.0000      27.476560       747.6752 
 186   0.0000      46.272036      1259.1261 
 187   0.0000      47.403699      1289.9202 
 188   0.0000      47.443729      1291.0095 
 189   0.0000      47.566713      1294.3561 
 190   0.0000      47.908045      1303.6442 
 191   0.0000      85.780175      2334.1972 
 192   0.0000      85.783160      2334.2785 
 193   0.0000      85.806998      2334.9271 
 194   0.0000      85.817662      2335.2173 
 195   0.0000      85.851954      2336.1504 
 196   0.0000     109.287368      2973.8605 
 197   0.0000     109.343013      2975.3747 
 198   0.0000     169.105815      4601.6032 
 199   0.0000     170.567105      4641.3669 
 200   0.0000     404.576532     11009.0871 
 201   0.0000     404.623736     11010.3716 
 202   0.0000     799.960363     21768.0281 
 203   0.0000     875.055682     23811.4757 
 204   0.0000    1899.520797     51688.5887 
 205   0.0000    1899.571539     51689.9695 

                 SPIN DOWN ORBITALS
  NO   OCC          E(Eh)            E(eV) 
   0   1.0000    -101.749804     -2768.7529 
   1   1.0000     -24.837470      -675.8619 
   2   1.0000     -24.834410      -675.7787 
   3   1.0000     -10.474501      -285.0257 
   4   1.0000      -9.574779      -260.5430 
   5   1.0000      -7.308500      -198.8744 
   6   1.0000      -7.300116      -198.6463 
   7   1.0000      -7.299997      -198.6430 
   8   1.0000      -1.319306       -35.9001 
   9   1.0000      -1.270632       -34.5757 
  10   1.0000      -0.906663       -24.6716 
  11   1.0000      -0.702867       -19.1260 
  12   1.0000      -0.603507       -16.4222 
  13   1.0000      -0.565828       -15.3970 
  14   1.0000      -0.534274       -14.5383 
  15   1.0000      -0.483578       -13.1588 
  16   1.0000      -0.468681       -12.7535 
  17   1.0000      -0.455140       -12.3850 
  18   1.0000      -0.373526       -10.1642 
  19   1.0000      -0.367790       -10.0081 
  20   0.0000      -0.135537        -3.6882 
  21   0.0000       0.000594         0.0162 
  22   0.0000       0.023482         0.6390 
  23   0.0000       0.040939         1.1140 
  24   0.0000       0.045374         1.2347 
  25   0.0000       0.054589         1.4854 
  26   0.0000       0.077899         2.1198 
  27   0.0000       0.090579         2.4648 
  28   0.0000       0.098942         2.6924 
  29   0.0000       0.121601         3.3089 
  30   0.0000       0.127952         3.4818 
  31   0.0000       0.138941         3.7808 
  32   0.0000       0.150256         4.0887 
  33   0.0000       0.182842         4.9754 
  34   0.0000       0.194863         5.3025 
  35   0.0000       0.210165         5.7189 
  36   0.0000       0.221291         6.0216 
  37   0.0000       0.231580         6.3016 
  38   0.0000       0.239228         6.5097 
  39   0.0000       0.244918         6.6645 
  40   0.0000       0.285962         7.7814 
  41   0.0000       0.286728         7.8023 
  42   0.0000       0.298235         8.1154 
  43   0.0000       0.324295         8.8245 
  44   0.0000       0.327194         8.9034 
  45   0.0000       0.351648         9.5688 
  46   0.0000       0.373698        10.1688 
  47   0.0000       0.404012        10.9937 
  48   0.0000       0.415952        11.3186 
  49   0.0000       0.426290        11.5999 
  50   0.0000       0.491328        13.3697 
  51   0.0000       0.561459        15.2781 
  52   0.0000       0.564797        15.3689 
  53   0.0000       0.579116        15.7585 
  54   0.0000       0.637580        17.3494 
  55   0.0000       0.647231        17.6121 
  56   0.0000       0.654665        17.8143 
  57   0.0000       0.674547        18.3553 
  58   0.0000       0.675899        18.3921 
  59   0.0000       0.694350        18.8942 
  60   0.0000       0.698752        19.0140 
  61   0.0000       0.737436        20.0667 
  62   0.0000       0.799934        21.7673 
  63   0.0000       0.824950        22.4480 
  64   0.0000       0.846110        23.0238 
  65   0.0000       0.874113        23.7858 
  66   0.0000       0.879460        23.9313 
  67   0.0000       0.913695        24.8629 
  68   0.0000       0.938567        25.5397 
  69   0.0000       0.940474        25.5916 
  70   0.0000       1.025442        27.9037 
  71   0.0000       1.028466        27.9860 
  72   0.0000       1.034337        28.1457 
  73   0.0000       1.036443        28.2030 
  74   0.0000       1.064396        28.9637 
  75   0.0000       1.105591        30.0847 
  76   0.0000       1.126847        30.6631 
  77   0.0000       1.248053        33.9613 
  78   0.0000       1.292062        35.1588 
  79   0.0000       1.343181        36.5498 
  80   0.0000       1.360575        37.0231 
  81   0.0000       1.388233        37.7757 
  82   0.0000       1.485265        40.4161 
  83   0.0000       1.521993        41.4155 
  84   0.0000       1.736680        47.2575 
  85   0.0000       1.787575        48.6424 
  86   0.0000       1.971365        53.6436 
  87   0.0000       2.035455        55.3876 
  88   0.0000       2.055331        55.9284 
  89   0.0000       2.058507        56.0148 
  90   0.0000       2.066342        56.2280 
  91   0.0000       2.073624        56.4262 
  92   0.0000       2.075842        56.4865 
  93   0.0000       2.087443        56.8022 
  94   0.0000       2.116298        57.5874 
  95   0.0000       2.149445        58.4894 
  96   0.0000       2.201491        59.9056 
  97   0.0000       2.264292        61.6145 
  98   0.0000       2.278798        62.0093 
  99   0.0000       2.317167        63.0533 
 100   0.0000       2.335070        63.5405 
 101   0.0000       2.354253        64.0625 
 102   0.0000       2.410807        65.6014 
 103   0.0000       2.447708        66.6055 
 104   0.0000       2.461581        66.9830 
 105   0.0000       2.527951        68.7890 
 106   0.0000       2.571275        69.9680 
 107   0.0000       2.595231        70.6198 
 108   0.0000       2.611091        71.0514 
 109   0.0000       2.662520        72.4509 
 110   0.0000       2.680201        72.9320 
 111   0.0000       2.729900        74.2844 
 112   0.0000       2.926597        79.6368 
 113   0.0000       3.009114        81.8822 
 114   0.0000       3.097423        84.2852 
 115   0.0000       3.151002        85.7431 
 116   0.0000       3.232012        87.9475 
 117   0.0000       3.246341        88.3374 
 118   0.0000       3.263308        88.7991 
 119   0.0000       3.387182        92.1699 
 120   0.0000       3.421125        93.0935 
 121   0.0000       3.497039        95.1593 
 122   0.0000       3.506585        95.4190 
 123   0.0000       3.534344        96.1744 
 124   0.0000       3.584778        97.5468 
 125   0.0000       3.627523        98.7099 
 126   0.0000       3.696186       100.5783 
 127   0.0000       4.310641       117.2985 
 128   0.0000       4.554223       123.9267 
 129   0.0000       4.571466       124.3959 
 130   0.0000       4.630849       126.0118 
 131   0.0000       4.676263       127.2476 
 132   0.0000       5.506282       149.8336 
 133   0.0000       5.545078       150.8892 
 134   0.0000       6.440751       175.2617 
 135   0.0000       6.481743       176.3772 
 136   0.0000       6.726395       183.0345 
 137   0.0000       6.736705       183.3151 
 138   0.0000       6.789331       184.7471 
 139   0.0000       6.804381       185.1566 
 140   0.0000       6.831859       185.9043 
 141   0.0000       6.834085       185.9649 
 142   0.0000       6.840357       186.1356 
 143   0.0000       6.859103       186.6457 
 144   0.0000       6.862431       186.7362 
 145   0.0000       6.898117       187.7073 
 146   0.0000       6.914636       188.1568 
 147   0.0000       6.936242       188.7447 
 148   0.0000       6.999875       190.4763 
 149   0.0000       7.232849       196.8158 
 150   0.0000       7.309181       198.8929 
 151   0.0000       7.346475       199.9078 
 152   0.0000       7.446273       202.6234 
 153   0.0000       7.559249       205.6976 
 154   0.0000       7.676006       208.8747 
 155   0.0000       8.722380       237.3480 
 156   0.0000       8.724854       237.4153 
 157   0.0000       8.739700       237.8193 
 158   0.0000       8.760470       238.3845 
 159   0.0000       8.787879       239.1304 
 160   0.0000       8.891413       241.9476 
 161   0.0000       8.899378       242.1644 
 162   0.0000       8.925444       242.8737 
 163   0.0000       8.972629       244.1576 
 164   0.0000       8.988021       244.5765 
 165   0.0000       9.107449       247.8263 
 166   0.0000       9.539886       259.5935 
 167   0.0000       9.841033       267.7881 
 168   0.0000       9.861887       268.3556 
 169   0.0000       9.914928       269.7989 
 170   0.0000      10.260333       279.1978 
 171   0.0000      11.965818       325.6065 
 172   0.0000      12.826439       349.0252 
 173   0.0000      20.139241       548.0166 
 174   0.0000      20.150654       548.3272 
 175   0.0000      20.194509       549.5205 
 176   0.0000      20.200602       549.6863 
 177   0.0000      20.817973       566.4859 
 178   0.0000      20.865314       567.7740 
 179   0.0000      23.866372       649.4370 
 180   0.0000      23.871392       649.5736 
 181   0.0000      23.907428       650.5542 
 182   0.0000      23.923274       650.9854 
 183   0.0000      23.983816       652.6328 
 184   0.0000      27.412913       745.9433 
 185   0.0000      27.482017       747.8237 
 186   0.0000      46.289443      1259.5998 
 187   0.0000      47.405488      1289.9689 
 188   0.0000      47.444251      1291.0237 
 189   0.0000      47.568022      1294.3917 
 190   0.0000      47.910018      1303.6979 
 191   0.0000      85.781601      2334.2360 
 192   0.0000      85.784937      2334.3268 
 193   0.0000      85.809773      2335.0026 
 194   0.0000      85.818998      2335.2537 
 195   0.0000      85.854216      2336.2120 
 196   0.0000     109.291164      2973.9638 
 197   0.0000     109.346794      2975.4775 
 198   0.0000     169.107134      4601.6391 
 199   0.0000     170.578421      4641.6748 
 200   0.0000     404.577863     11009.1233 
 201   0.0000     404.625063     11010.4077 
 202   0.0000     799.969240     21768.2697 
 203   0.0000     875.056298     23811.4924 
 204   0.0000    1899.521293     51688.6022 
 205   0.0000    1899.572035     51689.9829 
-------
TIMINGS
-------

Total SCF time: 0 days 0 hours 1 min 18 sec 

Total time                  ....      78.013 sec
Sum of individual times     ....      77.475 sec  ( 99.3%)

Fock matrix formation       ....      76.231 sec  ( 97.7%)
  XC integration            ....       9.114 sec  ( 12.0% of F)
    Basis function eval.    ....       1.590 sec  ( 17.4% of XC)
    Density eval.           ....       2.300 sec  ( 25.2% of XC)
    XC-Functional eval.     ....       0.612 sec  (  6.7% of XC)
    XC-Potential eval.      ....       4.213 sec  ( 46.2% of XC)
Diagonalization             ....       0.340 sec  (  0.4%)
Density matrix formation    ....       0.019 sec  (  0.0%)
Population analysis         ....       0.002 sec  (  0.0%)
Initial guess               ....       0.183 sec  (  0.2%)
Orbital Transformation      ....       0.000 sec  (  0.0%)
Orbital Orthonormalization  ....       0.000 sec  (  0.0%)
DIIS solution               ....       0.328 sec  (  0.4%)
Grid generation             ....       0.373 sec  (  0.5%)

Maximum memory used throughout the entire SCF-calculation: 266.2 MB

-------------------------   --------------------
FINAL SINGLE POINT ENERGY      -697.649672145203
-------------------------   --------------------

------------------------------------------------------------------------------
                         ORCA SCF GRADIENT CALCULATION
------------------------------------------------------------------------------

Gradient of the Kohn-Sham DFT energy:
Kohn-Sham wavefunction type      ... UKS
Hartree-Fock exchange scaling    ...    0.250
Number of operators              ...    2
Number of atoms                  ...    4
Basis set dimensions             ...  206
Integral neglect threshold       ... 2.5e-11
Integral primitive cutoff        ... 2.5e-12
SHARK Integral package           ... ON

Nuc. rep. gradient       (SHARK) ... done (  0.0 sec)
HCore & Overlap gradient (SHARK) ... done (  0.1 sec)
Two-Electron gradient    (SHARK) ... done ( 21.3 sec)
Exchange-correlation gradient    ... done

------------------
CARTESIAN GRADIENT
------------------

   1   C   :    0.002916742   -0.004287209    0.069844005
   2   Cl  :    0.020538833    0.002944208   -0.016676090
   3   F   :   -0.006252875    0.044917742   -0.026838425
   4   F   :   -0.017202700   -0.043574741   -0.026329489

Difference to translation invariance:
           :    0.0000000000   -0.0000000000   -0.0000000000

Difference to rotation invariance:
           :    0.0000922223   -0.0000889980   -0.0000124072

Norm of the cartesian gradient     ...    0.1062008120
RMS gradient                       ...    0.0306575337
MAX gradient                       ...    0.0698440046

-------
TIMINGS
-------

Total SCF gradient time            ...       23.008 sec

One electron gradient       ....       0.074 sec  (  0.3%)
Two electron gradient       ....      21.338 sec  ( 92.7%)
XC gradient                 ....       1.471 sec  (  6.4%)

Maximum memory used throughout the entire SCFGRAD-calculation: 65.0 MB
------------------------------------------------------------------------------
                         ORCA GEOMETRY RELAXATION STEP
------------------------------------------------------------------------------

Reading the OPT-File                    .... done
Getting information on internals        .... done
Copying old internal coords+grads       .... done
Making the new internal coordinates     .... (new redundants).... done
Validating the new internal coordinates .... (new redundants).... done
Calculating the B-matrix                .... done
Calculating the G,G- and P matrices     .... done
Transforming gradient to internals      .... done
Projecting the internal gradient        .... done
Number of atoms                         ....   4
Number of internal coordinates          ....   7
Current Energy                          ....  -697.649672145 Eh
Current gradient norm                   ....     0.106200812 Eh/bohr
Maximum allowed component of the step   ....  0.300
Current trust radius                    ....  0.300
Evaluating the initial hessian          ....  (Almloef) done
Projecting the Hessian                  .... done
Forming the augmented Hessian           .... done
Diagonalizing the augmented Hessian     .... done
Last element of RFO vector              ....  0.970812398
Lowest eigenvalues of augmented Hessian:
 -0.017290955  0.132454637  0.327480894  0.389649203  0.400770443
Length of the computed step             ....  0.247050955
The final length of the internal step   ....  0.247050955
Converting the step to cartesian space:
 Initial RMS(Int)=    0.0933764838
Transforming coordinates:
 Iter   0:  RMS(Cart)=    0.0546823357 RMS(Int)=    0.0928832352
 Iter   1:  RMS(Cart)=    0.0036101983 RMS(Int)=    0.0046127432
 Iter   2:  RMS(Cart)=    0.0002294997 RMS(Int)=    0.0003380336
 Iter   3:  RMS(Cart)=    0.0000247431 RMS(Int)=    0.0000299586
 Iter   4:  RMS(Cart)=    0.0000013051 RMS(Int)=    0.0000019948
 Iter   5:  RMS(Cart)=    0.0000001053 RMS(Int)=    0.0000001330
 Iter   6:  RMS(Cart)=    0.0000000082 RMS(Int)=    0.0000000116
done
Storing new coordinates                 .... done

                                .--------------------.
          ----------------------|Geometry convergence|-------------------------
          Item                value                   Tolerance       Converged
          ---------------------------------------------------------------------
          RMS gradient        0.0313841323            0.0001000000      NO
          MAX gradient        0.0527688607            0.0003000000      NO
          RMS step            0.0933764838            0.0020000000      NO
          MAX step            0.1590217922            0.0040000000      NO
          ........................................................
          Max(Bonds)      0.0508      Max(Angles)    5.44
          Max(Dihed)        0.00      Max(Improp)    9.11
          ---------------------------------------------------------------------

The optimization has not yet converged - more geometry cycles are needed


    ---------------------------------------------------------------------------
                         Redundant Internal Coordinates
                            (Angstroem and degrees)

        Definition                    Value    dE/dq     Step     New-Value
    ----------------------------------------------------------------------------
     1. B(Cl  1,C   0)                1.7872  0.024194 -0.0373    1.7499   
     2. B(F   2,C   0)                1.3856  0.050536 -0.0490    1.3366   
     3. B(F   3,C   0)                1.3835  0.052769 -0.0508    1.3327   
     4. A(Cl  1,C   0,F   3)          109.38 -0.005432    3.55    112.93   
     5. A(F   2,C   0,F   3)          110.29  0.003684    0.71    111.00   
     6. A(Cl  1,C   0,F   2)          106.32 -0.020030    5.44    111.76   
     7. I(Cl  1,F   3,F   2,C   0)     57.51  0.022950   -9.11     48.40   
    ----------------------------------------------------------------------------

         *************************************************************
         *                GEOMETRY OPTIMIZATION CYCLE   2            *
         *************************************************************
---------------------------------
CARTESIAN COORDINATES (ANGSTROEM)
---------------------------------
  C     -0.117474   -0.000836    0.316919
  Cl     1.586272   -0.069442   -0.076453
  F     -0.677282    1.133056   -0.115965
  F     -0.791516   -1.062778   -0.123501

----------------------------
CARTESIAN COORDINATES (A.U.)
----------------------------
  NO LB      ZA    FRAG     MASS         X           Y           Z
   0 C     6.0000    0    12.011   -0.221994   -0.001579    0.598890
   1 Cl   17.0000    0    35.453    2.997621   -0.131226   -0.144475
   2 F     9.0000    0    18.998   -1.279877    2.141165   -0.219143
   3 F     9.0000    0    18.998   -1.495749   -2.008359   -0.233382

--------------------------------
INTERNAL COORDINATES (ANGSTROEM)
--------------------------------
 C      0   0   0     0.000000000000     0.00000000     0.00000000
 Cl     1   0   0     1.749914659908     0.00000000     0.00000000
 F      1   2   0     1.336593511359   111.60690579     0.00000000
 F      1   2   3     1.332675423370   112.76215579   125.64432485

---------------------------
INTERNAL COORDINATES (A.U.)
---------------------------
 C      0   0   0     0.000000000000     0.00000000     0.00000000
 Cl     1   0   0     3.306859464961     0.00000000     0.00000000
 F      1   2   0     2.525795688844   111.60690579     0.00000000
 F      1   2   3     2.518391575578   112.76215579   125.64432485

------------------------------------------------------------------------------
                   ___                                                        
                  /   \      - P O W E R E D   B Y -                         
                 /     \                                                     
                 |  |  |   _    _      __       _____    __    __             
                 |  |  |  | |  | |    /  \     |  _  \  |  |  /  |          
                  \  \/   | |  | |   /    \    | | | |  |  | /  /          
                 / \  \   | |__| |  /  /\  \   | |_| |  |  |/  /          
                |  |  |   |  __  | /  /__\  \  |    /   |      \           
                |  |  |   | |  | | |   __   |  |    \   |  |\   \          
                \     /   | |  | | |  |  |  |  | |\  \  |  | \   \       
                 \___/    |_|  |_| |__|  |__|  |_| \__\ |__|  \__/        
                                                                              
                      - O R C A' S   B I G   F R I E N D -                    
                                      &                                       
                       - I N T E G R A L  F E E D E R -                       
                                                                              
 v1 FN, 2020, v2 2021                                                         
------------------------------------------------------------------------------


Reading SHARK input file C-Cl-F-F_radical_opt.SHARKINP.tmp ... ok
----------------------
SHARK INTEGRAL PACKAGE
----------------------

Number of atoms                             ...      4
Number of basis functions                   ...    225
Number of shells                            ...     91
Maximum angular momentum                    ...      3
Integral batch strategy                     ... SHARK/LIBINT Hybrid
RI-J (if used) integral strategy            ... SPLIT-RIJ (Revised 2003 algorithm where possible)
Printlevel                                  ...      1
Contraction scheme used                     ... PARTIAL GENERAL contraction
Coulomb Range Separation                    ... NOT USED
Exchange Range Separation                   ... NOT USED
Finite Nucleus Model                        ... NOT USED
Auxiliary Coulomb fitting basis             ... NOT available
Auxiliary J/K fitting basis                 ... NOT available
Auxiliary Correlation fitting basis         ... NOT available
Auxiliary 'external' fitting basis          ... NOT available
Integral threshold                          ...     2.500000e-11
Primitive cut-off                           ...     2.500000e-12
Primitive pair pre-selection threshold      ...     2.500000e-12

Calculating pre-screening integrals         ... done (  0.0 sec) Dimension = 91
Calculating pre-screening integrals (ORCA)  ... done (  0.1 sec) Dimension = 78
Organizing shell pair data                  ... done (  0.0 sec)
Shell pair information
Total number of shell pairs                 ...      4186
Shell pairs after pre-screening             ...      3405
Total number of primitive shell pairs       ...      6394
Primitive shell pairs kept                  ...      4666
          la=0 lb=0:    778 shell pairs
          la=1 lb=0:    963 shell pairs
          la=1 lb=1:    294 shell pairs
          la=2 lb=0:    605 shell pairs
          la=2 lb=1:    348 shell pairs
          la=2 lb=2:    114 shell pairs
          la=3 lb=0:    147 shell pairs
          la=3 lb=1:     90 shell pairs
          la=3 lb=2:     56 shell pairs
          la=3 lb=3:     10 shell pairs

Calculating one electron integrals          ... done (  0.0 sec)
Calculating Nuclear repulsion               ... done (  0.0 sec) ENN=    156.158122578450 Eh

SHARK setup successfully completed in   0.3 seconds

Maximum memory used throughout the entire GTOINT-calculation: 39.4 MB

Diagonalization of the overlap matrix:
Smallest eigenvalue                        ... 7.698e-05
Time for diagonalization                   ...    0.012 sec
Threshold for overlap eigenvalues          ... 1.000e-08
Number of eigenvalues below threshold      ... 0
Time for construction of square roots      ...    0.007 sec
Total time needed                          ...    0.019 sec

-------------------
DFT GRID GENERATION
-------------------

General Integration Accuracy     IntAcc      ... 4.388
Radial Grid Type                 RadialGrid  ... OptM3 with GC (2021)
Angular Grid (max. ang.)         AngularGrid ... 4 (Lebedev-302)
Angular grid pruning method      GridPruning ... 4 (adaptive)
Weight generation scheme         WeightScheme... Becke
Basis function cutoff            BFCut       ... 1.0000e-11
Integration weight cutoff        WCut        ... 1.0000e-14
Angular grids for H and He will be reduced by one unit
Partially contracted basis set               ... off
Rotationally invariant grid construction     ... off

Total number of grid points                  ...    26987
Total number of batches                      ...      424
Average number of points per batch           ...       63
Average number of grid points per atom       ...     6747
Time for grid setup =    0.301 sec

--------------
SCF ITERATIONS
--------------
ITER       Energy         Delta-E        Max-DP      RMS-DP      [F,P]     Damp
               ***  Starting incremental Fock matrix formation  ***
  0   -697.6540609954   0.000000000000 0.00338115  0.00006573  0.0147293 0.7000
  1   -697.6560135528  -0.001952557406 0.00359772  0.00006223  0.0110355 0.7000
                               ***Turning on DIIS***
  2   -697.6575341082  -0.001520555383 0.01064592  0.00016741  0.0085367 0.0000
  3   -697.6614584343  -0.003924326130 0.00280123  0.00003293  0.0017029 0.0000
  4   -697.6615520197  -0.000093585417 0.00134090  0.00002091  0.0007969 0.0000
  5   -697.6615741112  -0.000022091457 0.00044682  0.00000646  0.0004463 0.0000
  6   -697.6615767667  -0.000002655484 0.00018813  0.00000274  0.0002594 0.0000
  7   -697.6615775299  -0.000000763278 0.00004037  0.00000080  0.0000888 0.0000
  8   -697.6615775838  -0.000000053883 0.00002429  0.00000041  0.0000514 0.0000
  9   -697.6615776017  -0.000000017855 0.00001429  0.00000019  0.0000125 0.0000
 10   -697.6615776044  -0.000000002708 0.00000395  0.00000006  0.0000049 0.0000
 11   -697.6615776044  -0.000000000016 0.00000208  0.00000003  0.0000023 0.0000
 12   -697.6615776040   0.000000000421 0.00000112  0.00000002  0.0000012 0.0000
                            ***DIIS convergence achieved***

               *****************************************************
               *                     SUCCESS                       *
               *           SCF CONVERGED AFTER  13 CYCLES          *
               *****************************************************

Total Energy       :         -697.66157760 Eh          -18984.33667 eV
  Last Energy change         ...   -3.3742e-10  Tolerance :   1.0000e-08
  Last MAX-Density change    ...    1.0644e-06  Tolerance :   1.0000e-07
             **** THE GBW FILE WAS UPDATED (C-Cl-F-F_radical_opt.gbw) ****
             **** DENSITY C-Cl-F-F_radical_opt.scfp WAS UPDATED ****
             **** ENERGY FILE WAS UPDATED (C-Cl-F-F_radical_opt.en.tmp) ****
----------------------
UHF SPIN CONTAMINATION
----------------------

Warning: in a DFT calculation there is little theoretical justification to 
         calculate <S**2> as in Hartree-Fock theory. We will do it anyways
         but you should keep in mind that the values have only limited relevance

Expectation value of <S**2>     :     0.753163
Ideal value S*(S+1) for S=0.5   :     0.750000
Deviation                       :     0.003163

             **** THE GBW FILE WAS UPDATED (C-Cl-F-F_radical_opt.gbw) ****
             **** DENSITY C-Cl-F-F_radical_opt.scfp WAS UPDATED ****
Total SCF time: 0 days 0 hours 1 min 7 sec 

Maximum memory used throughout the entire SCF-calculation: 266.2 MB

-------------------------   --------------------
FINAL SINGLE POINT ENERGY      -697.661577604321
-------------------------   --------------------

------------------------------------------------------------------------------
                         ORCA SCF GRADIENT CALCULATION
------------------------------------------------------------------------------

Gradient of the Kohn-Sham DFT energy:
Kohn-Sham wavefunction type      ... UKS
Hartree-Fock exchange scaling    ...    0.250
Number of operators              ...    2
Number of atoms                  ...    4
Basis set dimensions             ...  206
Integral neglect threshold       ... 2.5e-11
Integral primitive cutoff        ... 2.5e-12
SHARK Integral package           ... ON

Nuc. rep. gradient       (SHARK) ... done (  0.0 sec)
HCore & Overlap gradient (SHARK) ... done (  0.1 sec)
Two-Electron gradient    (SHARK) ... done ( 21.5 sec)
Exchange-correlation gradient    ... done

------------------
CARTESIAN GRADIENT
------------------

   1   C   :   -0.000992195   -0.002940553    0.021296920
   2   Cl  :    0.011003305    0.000737596   -0.005613190
   3   F   :   -0.003648222    0.017959119   -0.008298170
   4   F   :   -0.006362889   -0.015756163   -0.007385561

Difference to translation invariance:
           :    0.0000000000   -0.0000000000    0.0000000000

Difference to rotation invariance:
           :   -0.0001058857   -0.0000130267   -0.0000795493

Norm of the cartesian gradient     ...    0.0369364780
RMS gradient                       ...    0.0106626428
MAX gradient                       ...    0.0212969200

-------
TIMINGS
-------

Total SCF gradient time            ...       23.205 sec

One electron gradient       ....       0.072 sec  (  0.3%)
Two electron gradient       ....      21.507 sec  ( 92.7%)
XC gradient                 ....       1.509 sec  (  6.5%)

Maximum memory used throughout the entire SCFGRAD-calculation: 65.1 MB
------------------------------------------------------------------------------
                         ORCA GEOMETRY RELAXATION STEP
------------------------------------------------------------------------------

Reading the OPT-File                    .... done
Getting information on internals        .... done
Copying old internal coords+grads       .... done
Making the new internal coordinates     .... (new redundants).... done
Validating the new internal coordinates .... (new redundants).... done
Calculating the B-matrix                .... done
Calculating the G,G- and P matrices     .... done
Transforming gradient to internals      .... done
Projecting the internal gradient        .... done
Number of atoms                         ....   4
Number of internal coordinates          ....   7
Current Energy                          ....  -697.661577604 Eh
Current gradient norm                   ....     0.036936478 Eh/bohr
Maximum allowed component of the step   ....  0.300
Current trust radius                    ....  0.300
Updating the Hessian (BFGS)             .... done
Forming the augmented Hessian           .... done
Diagonalizing the augmented Hessian     .... done
Last element of RFO vector              ....  0.992341438
Lowest eigenvalues of augmented Hessian:
 -0.003425584  0.124006982  0.287955842  0.384210043  0.395888427
Length of the computed step             ....  0.124478507
The final length of the internal step   ....  0.124478507
Converting the step to cartesian space:
 Initial RMS(Int)=    0.0470484533
Transforming coordinates:
 Iter   0:  RMS(Cart)=    0.0283029367 RMS(Int)=    0.0469525206
 Iter   1:  RMS(Cart)=    0.0007018042 RMS(Int)=    0.0008858641
 Iter   2:  RMS(Cart)=    0.0000218863 RMS(Int)=    0.0000328849
 Iter   3:  RMS(Cart)=    0.0000008645 RMS(Int)=    0.0000010921
 Iter   4:  RMS(Cart)=    0.0000000269 RMS(Int)=    0.0000000353
done
Storing new coordinates                 .... done

                                .--------------------.
          ----------------------|Geometry convergence|-------------------------
          Item                value                   Tolerance       Converged
          ---------------------------------------------------------------------
          Energy change      -0.0119054591            0.0000050000      NO
          RMS gradient        0.0116448188            0.0001000000      NO
          MAX gradient        0.0194441602            0.0003000000      NO
          RMS step            0.0470484533            0.0020000000      NO
          MAX step            0.0661100333            0.0040000000      NO
          ........................................................
          Max(Bonds)      0.0295      Max(Angles)    2.34
          Max(Dihed)        0.00      Max(Improp)    3.79
          ---------------------------------------------------------------------

The optimization has not yet converged - more geometry cycles are needed


    ---------------------------------------------------------------------------
                         Redundant Internal Coordinates
                            (Angstroem and degrees)

        Definition                    Value    dE/dq     Step     New-Value
    ----------------------------------------------------------------------------
     1. B(Cl  1,C   0)                1.7499  0.011947 -0.0289    1.7210   
     2. B(F   2,C   0)                1.3366  0.019444 -0.0295    1.3071   
     3. B(F   3,C   0)                1.3327  0.018220 -0.0275    1.3052   
     4. A(Cl  1,C   0,F   3)          112.76 -0.001804    1.42    114.19   
     5. A(F   2,C   0,F   3)          110.92  0.003795   -0.37    110.55   
     6. A(Cl  1,C   0,F   2)          111.61 -0.006243    2.34    113.95   
     7. I(Cl  1,F   3,F   2,C   0)     48.24  0.006309   -3.79     44.45   
    ----------------------------------------------------------------------------

         *************************************************************
         *                GEOMETRY OPTIMIZATION CYCLE   3            *
         *************************************************************
---------------------------------
CARTESIAN COORDINATES (ANGSTROEM)
---------------------------------
  C     -0.106920    0.002605    0.289036
  Cl     1.575033   -0.073802   -0.067306
  F     -0.682286    1.107687   -0.106109
  F     -0.785826   -1.036491   -0.114621

----------------------------
CARTESIAN COORDINATES (A.U.)
----------------------------
  NO LB      ZA    FRAG     MASS         X           Y           Z
   0 C     6.0000    0    12.011   -0.202050    0.004923    0.546199
   1 Cl   17.0000    0    35.453    2.976380   -0.139465   -0.127189
   2 F     9.0000    0    18.998   -1.289334    2.093226   -0.200517
   3 F     9.0000    0    18.998   -1.484997   -1.958684   -0.216603

--------------------------------
INTERNAL COORDINATES (ANGSTROEM)
--------------------------------
 C      0   0   0     0.000000000000     0.00000000     0.00000000
 Cl     1   0   0     1.720983109992     0.00000000     0.00000000
 F      1   2   0     1.307054729551   113.90095139     0.00000000
 F      1   2   3     1.305210107138   114.14034960   128.23424915

---------------------------
INTERNAL COORDINATES (A.U.)
---------------------------
 C      0   0   0     0.000000000000     0.00000000     0.00000000
 Cl     1   0   0     3.252186758988     0.00000000     0.00000000
 F      1   2   0     2.469975480898   113.90095139     0.00000000
 F      1   2   3     2.466489649718   114.14034960   128.23424915

------------------------------------------------------------------------------
                   ___                                                        
                  /   \      - P O W E R E D   B Y -                         
                 /     \                                                     
                 |  |  |   _    _      __       _____    __    __             
                 |  |  |  | |  | |    /  \     |  _  \  |  |  /  |          
                  \  \/   | |  | |   /    \    | | | |  |  | /  /          
                 / \  \   | |__| |  /  /\  \   | |_| |  |  |/  /          
                |  |  |   |  __  | /  /__\  \  |    /   |      \           
                |  |  |   | |  | | |   __   |  |    \   |  |\   \          
                \     /   | |  | | |  |  |  |  | |\  \  |  | \   \       
                 \___/    |_|  |_| |__|  |__|  |_| \__\ |__|  \__/        
                                                                              
                      - O R C A' S   B I G   F R I E N D -                    
                                      &                                       
                       - I N T E G R A L  F E E D E R -                       
                                                                              
 v1 FN, 2020, v2 2021                                                         
------------------------------------------------------------------------------


Reading SHARK input file C-Cl-F-F_radical_opt.SHARKINP.tmp ... ok
----------------------
SHARK INTEGRAL PACKAGE
----------------------

Number of atoms                             ...      4
Number of basis functions                   ...    225
Number of shells                            ...     91
Maximum angular momentum                    ...      3
Integral batch strategy                     ... SHARK/LIBINT Hybrid
RI-J (if used) integral strategy            ... SPLIT-RIJ (Revised 2003 algorithm where possible)
Printlevel                                  ...      1
Contraction scheme used                     ... PARTIAL GENERAL contraction
Coulomb Range Separation                    ... NOT USED
[...]
                           ORCA CP-SCF CALCULATION
------------------------------------------------------------------------------

Input orbitals are from        ... C-Cl-F-F_radical_EPR.gbw
Input Perturbation             ... C-Cl-F-F_radical_EPR.pin.tmp
Wavefunction output            ... C-Cl-F-F_radical_EPR.pout.tmp
Perturbation mode              ... Imaginary perturbation
Solver                         ... POPLE
Max. number of iterations      ... 64
Convergence tolerance          ... 1.000e-03
Integral handling              ... Direct
DFT GridXC                     ... 1
Number of perturbations        ... 3
Number of operators            ... 2
Orbital ranges used for CP-SCF:
 Operator 0:  Orbitals   0... 20  to  21...205
 Operator 1:  Orbitals   0... 19  to  20...205
Variables per perturbation     ... 7605
DFT calculation                         ... on
XC functional terms                     ... off
Hybrid DFT                              ... on
   Exchange mixing (SCF)                ...  0.250
   Exchange mixing (CP-SCF)             ...  0.250
   GGA exch. scaling(SCF)               ...  0.750
   GGA exch. scaling (CP-SCF)           ...  0.750
   GGA corr. scaling (SCF)              ...  1.000
   GGA corr. scaling (CP-SCF)           ...  1.000

CP-SCF GRID
-----------

General Integration Accuracy     IntAcc      ... 3.467
Radial Grid Type                 RadialGrid  ... OptM3 with GC (2021)
Angular Grid (max. ang.)         AngularGrid ... 1 (Lebedev-50)
Angular grid pruning method      GridPruning ... 4 (adaptive)
Weight generation scheme         WeightScheme... Becke
Basis function cutoff            BFCut       ... 1.0000e-11
Integration weight cutoff        WCut        ... 1.0000e-14
Angular grids for H and He will be reduced by one unit
Partially contracted basis set               ... off
Rotationally invariant grid construction     ... off

Total number of grid points                  ...     4394
Total number of batches                      ...       71
Average number of points per batch           ...       61
Average number of grid points per atom       ...     1098

Memory available               ... 868.9 MB
Memory needed per perturbation ...   8.8 MB
Perturbations treated per batch... 3
Number of batches              ... 1
     CP-SCF ITERATION   0:   1.1982e+00 (  11.7 sec   0/  3 done)
     CP-SCF ITERATION   1:   5.6233e-02 (  11.4 sec   0/  3 done)
     CP-SCF ITERATION   2:   4.8729e-03 (  11.4 sec   0/  3 done)
     CP-SCF ITERATION   3:   4.1279e-04 (  11.5 sec   3/  3 done)
                    *** THE CP-SCF HAS CONVERGED ***

Forming final perturbed densities           ... done
Transforming perturbed density to AO basis  ... done

 Raw HFC matrix (all values in MHz): 
 -----------------------------------
               552.8455               0.0466             -11.9510
                 0.0469             552.7841              -0.2482
               -12.0389              -0.2440             749.8616

 A(FC)         618.3197             618.3197             618.3197
 A(SD)         -66.1011             -66.2082             132.3093
 A(ORB+DIA)     -0.1021               0.6738              -0.0394    A(PC) =   0.1774
 A(ORB)         -0.1042               0.6718              -0.0392    A(PC) =   0.1762
 A(DIA)          0.0020               0.0020              -0.0002    A(PC) =   0.0013
             ----------           ----------           ----------
 A(Tot)        552.1164             552.7853             750.5895    A(iso)=  618.4971
 Orientation: 
  X           0.9970530           -0.0473890            0.0603287
  Y          -0.0475519           -0.9988680            0.0012666
  Z           0.0602004           -0.0041316           -0.9981778

Notes:  (1) The A matrix conforms to the "SAI" spin Hamiltonian convention.
        (2) Tensor is right-handed.

 -----------------------------------------------------------
 Nucleus   2F : A:ISTP=   19 I=  0.5 P=502.2248 MHz/au**3
                Q:ISTP=   19 I=  0.5 Q=  0.0000 barn     
 -----------------------------------------------------------
 Solving for nuclear perturbation:
Forming RHS of the CP-SCF equations         ... 
Calc. nucleus orbit integrals (SHARK)       ... done

------------------------------------------------------------------------------
                           ORCA CP-SCF CALCULATION
------------------------------------------------------------------------------

Input orbitals are from        ... C-Cl-F-F_radical_EPR.gbw
Input Perturbation             ... C-Cl-F-F_radical_EPR.pin.tmp
Wavefunction output            ... C-Cl-F-F_radical_EPR.pout.tmp
Perturbation mode              ... Imaginary perturbation
Solver                         ... POPLE
Max. number of iterations      ... 64
Convergence tolerance          ... 1.000e-03
Integral handling              ... Direct
DFT GridXC                     ... 1
Number of perturbations        ... 3
Number of operators            ... 2
Orbital ranges used for CP-SCF:
 Operator 0:  Orbitals   0... 20  to  21...205
 Operator 1:  Orbitals   0... 19  to  20...205
Variables per perturbation     ... 7605
DFT calculation                         ... on
XC functional terms                     ... off
Hybrid DFT                              ... on
   Exchange mixing (SCF)                ...  0.250
   Exchange mixing (CP-SCF)             ...  0.250
   GGA exch. scaling(SCF)               ...  0.750
   GGA exch. scaling (CP-SCF)           ...  0.750
   GGA corr. scaling (SCF)              ...  1.000
   GGA corr. scaling (CP-SCF)           ...  1.000

CP-SCF GRID
-----------

General Integration Accuracy     IntAcc      ... 3.467
Radial Grid Type                 RadialGrid  ... OptM3 with GC (2021)
Angular Grid (max. ang.)         AngularGrid ... 1 (Lebedev-50)
Angular grid pruning method      GridPruning ... 4 (adaptive)
Weight generation scheme         WeightScheme... Becke
Basis function cutoff            BFCut       ... 1.0000e-11
Integration weight cutoff        WCut        ... 1.0000e-14
Angular grids for H and He will be reduced by one unit
Partially contracted basis set               ... off
Rotationally invariant grid construction     ... off

Total number of grid points                  ...     4394
Total number of batches                      ...       71
Average number of points per batch           ...       61
Average number of grid points per atom       ...     1098

Memory available               ... 868.6 MB
Memory needed per perturbation ...   8.8 MB
Perturbations treated per batch... 3
Number of batches              ... 1
     CP-SCF ITERATION   0:   2.7934e+00 (  11.7 sec   0/  3 done)
     CP-SCF ITERATION   1:   1.2693e-01 (  11.0 sec   0/  3 done)
     CP-SCF ITERATION   2:   1.1201e-02 (  11.1 sec   0/  3 done)
     CP-SCF ITERATION   3:   1.1478e-03 (  11.1 sec   2/  3 done)
     CP-SCF ITERATION   4:   9.7244e-05 (   7.3 sec   3/  3 done)
                    *** THE CP-SCF HAS CONVERGED ***

Forming final perturbed densities           ... done
Transforming perturbed density to AO basis  ... done

 Raw HFC matrix (all values in MHz): 
 -----------------------------------
               117.0377               9.7492              -2.6193
                 9.7610             127.8152             -97.4876
                -2.8963             -96.5935             646.5836

 A(FC)         295.2141             295.2141             295.2141
 A(SD)        -193.2596            -175.8914             369.1510
 A(ORB+DIA)      1.9663               4.0155              -0.1875    A(PC) =   1.9314
 A(ORB)          1.9627               4.0146              -0.1865    A(PC) =   1.9303
 A(DIA)          0.0035               0.0010              -0.0010    A(PC) =   0.0012
             ----------           ----------           ----------
 A(Tot)        103.9208             123.3382             664.1775    A(iso)=  297.1455
 Orientation: 
  X           0.5606172           -0.8280374            0.0078962
  Y          -0.8154940           -0.5504187            0.1789101
  Z          -0.1437980           -0.1067394           -0.9838337

Notes:  (1) The A matrix conforms to the "SAI" spin Hamiltonian convention.
        (2) Tensor is right-handed.

 -----------------------------------------------------------
 Nucleus   3F : A:ISTP=   19 I=  0.5 P=502.2248 MHz/au**3
                Q:ISTP=   19 I=  0.5 Q=  0.0000 barn     
 -----------------------------------------------------------
 Solving for nuclear perturbation:
Forming RHS of the CP-SCF equations         ... 
Calc. nucleus orbit integrals (SHARK)       ... done

------------------------------------------------------------------------------
                           ORCA CP-SCF CALCULATION
------------------------------------------------------------------------------

Input orbitals are from        ... C-Cl-F-F_radical_EPR.gbw
Input Perturbation             ... C-Cl-F-F_radical_EPR.pin.tmp
Wavefunction output            ... C-Cl-F-F_radical_EPR.pout.tmp
Perturbation mode              ... Imaginary perturbation
Solver                         ... POPLE
Max. number of iterations      ... 64
Convergence tolerance          ... 1.000e-03
Integral handling              ... Direct
DFT GridXC                     ... 1
Number of perturbations        ... 3
Number of operators            ... 2
Orbital ranges used for CP-SCF:
 Operator 0:  Orbitals   0... 20  to  21...205
 Operator 1:  Orbitals   0... 19  to  20...205
Variables per perturbation     ... 7605
DFT calculation                         ... on
XC functional terms                     ... off
Hybrid DFT                              ... on
   Exchange mixing (SCF)                ...  0.250
   Exchange mixing (CP-SCF)             ...  0.250
   GGA exch. scaling(SCF)               ...  0.750
   GGA exch. scaling (CP-SCF)           ...  0.750
   GGA corr. scaling (SCF)              ...  1.000
   GGA corr. scaling (CP-SCF)           ...  1.000

CP-SCF GRID
-----------

General Integration Accuracy     IntAcc      ... 3.467
Radial Grid Type                 RadialGrid  ... OptM3 with GC (2021)
Angular Grid (max. ang.)         AngularGrid ... 1 (Lebedev-50)
Angular grid pruning method      GridPruning ... 4 (adaptive)
Weight generation scheme         WeightScheme... Becke
Basis function cutoff            BFCut       ... 1.0000e-11
Integration weight cutoff        WCut        ... 1.0000e-14
Angular grids for H and He will be reduced by one unit
Partially contracted basis set               ... off
Rotationally invariant grid construction     ... off

Total number of grid points                  ...     4394
Total number of batches                      ...       71
Average number of points per batch           ...       61
Average number of grid points per atom       ...     1098

Memory available               ... 868.6 MB
Memory needed per perturbation ...   8.8 MB
Perturbations treated per batch... 3
Number of batches              ... 1
     CP-SCF ITERATION   0:   2.8147e+00 (  11.7 sec   0/  3 done)
     CP-SCF ITERATION   1:   1.2775e-01 (  11.0 sec   0/  3 done)
     CP-SCF ITERATION   2:   1.1421e-02 (  11.1 sec   0/  3 done)
     CP-SCF ITERATION   3:   1.1596e-03 (  11.1 sec   2/  3 done)
     CP-SCF ITERATION   4:   9.9834e-05 (   7.3 sec   3/  3 done)
                    *** THE CP-SCF HAS CONVERGED ***

Forming final perturbed densities           ... done
Transforming perturbed density to AO basis  ... done

 Raw HFC matrix (all values in MHz): 
 -----------------------------------
               115.2590              -8.6371               6.3531
                -8.6457             127.9556              92.9345
                 5.9922              92.0706             648.2133

 A(FC)         295.2114             295.2114             295.2114
 A(SD)        -193.2609            -175.9245             369.1854
 A(ORB+DIA)      1.9622               4.0189              -0.1874    A(PC) =   1.9312
 A(ORB)          1.9586               4.0180              -0.1864    A(PC) =   1.9301
 A(DIA)          0.0035               0.0010              -0.0010    A(PC) =   0.0012
             ----------           ----------           ----------
 A(Tot)        103.9127             123.3058             664.2094    A(iso)=  297.1426
 Orientation: 
  X           0.6366586            0.7710965           -0.0087165
  Y           0.7588779           -0.6284984           -0.1705699
  Z          -0.1370042            0.1019800           -0.9853070

Notes:  (1) The A matrix conforms to the "SAI" spin Hamiltonian convention.
        (2) Tensor is right-handed.

 -----------------------------------------------------------
 Nucleus   1Cl: A:ISTP=   35 I=  1.5 P= 52.3376 MHz/au**3
                Q:ISTP=   35 I=  1.5 Q= -0.0817 barn     
 -----------------------------------------------------------
 Solving for nuclear perturbation:
Forming RHS of the CP-SCF equations         ... 
Calc. nucleus orbit integrals (SHARK)       ... done

------------------------------------------------------------------------------
                           ORCA CP-SCF CALCULATION
------------------------------------------------------------------------------

Input orbitals are from        ... C-Cl-F-F_radical_EPR.gbw
Input Perturbation             ... C-Cl-F-F_radical_EPR.pin.tmp
Wavefunction output            ... C-Cl-F-F_radical_EPR.pout.tmp
Perturbation mode              ... Imaginary perturbation
Solver                         ... POPLE
Max. number of iterations      ... 64
Convergence tolerance          ... 1.000e-03
Integral handling              ... Direct
DFT GridXC                     ... 1
Number of perturbations        ... 3
Number of operators            ... 2
Orbital ranges used for CP-SCF:
 Operator 0:  Orbitals   0... 20  to  21...205
 Operator 1:  Orbitals   0... 19  to  20...205
Variables per perturbation     ... 7605
DFT calculation                         ... on
XC functional terms                     ... off
Hybrid DFT                              ... on
   Exchange mixing (SCF)                ...  0.250
   Exchange mixing (CP-SCF)             ...  0.250
   GGA exch. scaling(SCF)               ...  0.750
   GGA exch. scaling (CP-SCF)           ...  0.750
   GGA corr. scaling (SCF)              ...  1.000
   GGA corr. scaling (CP-SCF)           ...  1.000

CP-SCF GRID
-----------

General Integration Accuracy     IntAcc      ... 3.467
Radial Grid Type                 RadialGrid  ... OptM3 with GC (2021)
Angular Grid (max. ang.)         AngularGrid ... 1 (Lebedev-50)
Angular grid pruning method      GridPruning ... 4 (adaptive)
Weight generation scheme         WeightScheme... Becke
Basis function cutoff            BFCut       ... 1.0000e-11
Integration weight cutoff        WCut        ... 1.0000e-14
Angular grids for H and He will be reduced by one unit
Partially contracted basis set               ... off
Rotationally invariant grid construction     ... off

Total number of grid points                  ...     4394
Total number of batches                      ...       71
Average number of points per batch           ...       61
Average number of grid points per atom       ...     1098

Memory available               ... 868.6 MB
Memory needed per perturbation ...   8.8 MB
Perturbations treated per batch... 3
Number of batches              ... 1
     CP-SCF ITERATION   0:   5.5153e+00 (  11.9 sec   0/  3 done)
     CP-SCF ITERATION   1:   3.2222e-01 (  11.0 sec   0/  3 done)
     CP-SCF ITERATION   2:   2.8174e-02 (  11.0 sec   0/  3 done)
     CP-SCF ITERATION   3:   3.1281e-03 (  11.1 sec   0/  3 done)
     CP-SCF ITERATION   4:   2.5834e-04 (  11.1 sec   3/  3 done)
                    *** THE CP-SCF HAS CONVERGED ***

Forming final perturbed densities           ... done
Transforming perturbed density to AO basis  ... done

 Raw HFC matrix (all values in MHz): 
 -----------------------------------
                33.3298              -0.5445             -35.5908
                -0.5447              18.7888               1.4701
               -35.5511               1.4682              72.7049

 A(FC)          41.4225              41.4225              41.4225
 A(SD)         -29.5941             -22.7696              52.3637
 A(ORB+DIA)      0.5212               0.1162              -0.0814    A(PC) =   0.1853
 A(ORB)          0.5211               0.1161              -0.0814    A(PC) =   0.1853
 A(DIA)          0.0001               0.0000              -0.0000    A(PC) =   0.0000
             ----------           ----------           ----------
 A(Tot)         12.3496              18.7691              93.7049    A(iso)=   41.6078
 Orientation: 
  X          -0.8601878            0.0476311            0.5077482
  Y           0.0431582            0.9988561           -0.0205859
  Z          -0.5081479            0.0042058           -0.8612596

Notes:  (1) The A matrix conforms to the "SAI" spin Hamiltonian convention.
        (2) Tensor is right-handed.


--------------------------------------------------------------------------------
----------------------------------------------------------------------------
                           ORCA EULER ANGLE PROGRAM
----------------------------------------------------------------------------

Only g-tensor available        -->  using g-tensor as reference tensor

Reference tensor               ...  g

g-tensor ordering              ...  |g_min> --> |gx>
                                    |g_mid> --> |gy>
                                    |g_max> --> |gz>

A- and EFG-tensor ordering     ...  the axes |Ax>, |Qx>, |Ay>, etc. are assigned
                                    such that the Euler rotation is minimal. You
                                    can find the respective eigenvalues as Ax,
                                    EFGx, Ay, etc. in the tables below.
                                    The relation of |Ax>, |Ay>,  etc. to Amin, Amid, etc.
                                    (as printed in the ORCA EPR/NMR CALCULATION Output)
                                    is obtained in the detailed printout.

Euler rotation around          ...  z - y - z
   First rotation              -->  by alpha around z
   Second rotation             -->  by beta around y'
   Third rotation              -->  by gamma around z''
   Positive / Negative angle   -->  clockwise / counterclockwise rotation

Plot EFG-tensors                    (-)
Plot HFC-tensors                    (-)
Detailed Printout                   (-)

-------------------------------------------------------------------------
          Euler rotation of hyperfine tensor to g-tensor
-------------------------------------------------------------------------

-------------------------------------------------------------------
 Atom  |   Alpha    Beta    Gamma   |   Ax       Ay       Az 
       |          [degrees]         |           [MHz]         
-------------------------------------------------------------------
  0C        5.3      0.0      0.0     750.59   552.12   552.79
  2F       73.5     38.0    -68.1     664.18   123.34   103.92
  3F     -106.5     38.0    111.9     664.21   123.31   103.91
  1Cl     -21.8      0.0      0.0      93.70    12.35    18.77
-------------------------------------------------------------------


Maximum memory used throughout the entire EPRNMR-calculation: 172.5 MB

Timings for individual modules:

Sum of individual times         ...      413.792 sec (=   6.897 min)
GTO integral calculation        ...        0.350 sec (=   0.006 min)   0.1 %
Spin-Orbit-Coupling Matrices    ...       67.540 sec (=   1.126 min)  16.3 %
SCF iterations                  ...        9.501 sec (=   0.158 min)   2.3 %
EPR/NMR calculation             ...      336.402 sec (=   5.607 min)  81.3 %



                             ****ORCA TERMINATED NORMALLY****
TOTAL RUN TIME: 0 days 0 hours 15 minutes 11 seconds 203 msec

slurmID:    30883857
totalRuntime[s]:    911.297948061
