
                                 *****************
                                 * O   R   C   A *
                                 *****************

                                            #,                                       
                                            ###                                      
                                            ####                                     
                                            #####                                    
                                            ######                                   
                                           ########,                                 
                                     ,,################,,,,,                         
                               ,,#################################,,                 
                          ,,##########################################,,             
                       ,#########################################, ''#####,          
                    ,#############################################,,   '####,        
                  ,##################################################,,,,####,       
                ,###########''''           ''''###############################       
              ,#####''   ,,,,##########,,,,          '''####'''          '####       
            ,##' ,,,,###########################,,,                        '##       
           ' ,,###''''                  '''############,,,                           
         ,,##''                                '''############,,,,        ,,,,,,###''
      ,#''                                            '''#######################'''  
     '                                                          ''''####''''         
             ,#######,   #######,   ,#######,      ##                                
            ,#'     '#,  ##    ##  ,#'     '#,    #''#        ######   ,####,        
            ##       ##  ##   ,#'  ##            #'  '#       #        #'  '#        
            ##       ##  #######   ##           ,######,      #####,   #    #        
            '#,     ,#'  ##    ##  '#,     ,#' ,#      #,         ##   #,  ,#        
             '#######'   ##     ##  '#######'  #'      '#     #####' # '####'        



                  #######################################################
                  #                        -***-                        #
                  #          Department of theory and spectroscopy      #
                  #    Directorship and core code : Frank Neese         #
                  #        Max Planck Institute fuer Kohlenforschung    #
                  #                Kaiser Wilhelm Platz 1               #
                  #                 D-45470 Muelheim/Ruhr               #
                  #                      Germany                        #
                  #                                                     #
                  #                  All rights reserved                #
                  #                        -***-                        #
                  #######################################################


                         Program Version 5.0.4 -  RELEASE  -


 With contributions from (in alphabetic order):
   Daniel Aravena         : Magnetic Suceptibility
   Michael Atanasov       : Ab Initio Ligand Field Theory (pilot matlab implementation)
   Alexander A. Auer      : GIAO ZORA, VPT2 properties, NMR spectrum
   Ute Becker             : Parallelization
   Giovanni Bistoni       : ED, misc. LED, open-shell LED, HFLD
   Martin Brehm           : Molecular dynamics
   Dmytro Bykov           : SCF Hessian
   Vijay G. Chilkuri      : MRCI spin determinant printing, contributions to CSF-ICE
   Dipayan Datta          : RHF DLPNO-CCSD density
   Achintya Kumar Dutta   : EOM-CC, STEOM-CC
   Dmitry Ganyushin       : Spin-Orbit,Spin-Spin,Magnetic field MRCI
   Miquel Garcia          : C-PCM and meta-GGA Hessian, CC/C-PCM, Gaussian charge scheme
   Yang Guo               : DLPNO-NEVPT2, F12-NEVPT2, CIM, IAO-localization
   Andreas Hansen         : Spin unrestricted coupled pair/coupled cluster methods
   Benjamin Helmich-Paris : MC-RPA, TRAH-SCF, COSX integrals
   Lee Huntington         : MR-EOM, pCC
   Robert Izsak           : Overlap fitted RIJCOSX, COSX-SCS-MP3, EOM
   Marcus Kettner         : VPT2
   Christian Kollmar      : KDIIS, OOCD, Brueckner-CCSD(T), CCSD density, CASPT2, CASPT2-K
   Simone Kossmann        : Meta GGA functionals, TD-DFT gradient, OOMP2, MP2 Hessian
   Martin Krupicka        : Initial AUTO-CI
   Lucas Lang             : DCDCAS
   Marvin Lechner         : AUTO-CI (C++ implementation), FIC-MRCC
   Dagmar Lenk            : GEPOL surface, SMD
   Dimitrios Liakos       : Extrapolation schemes; Compound Job, initial MDCI parallelization
   Dimitrios Manganas     : Further ROCIS development; embedding schemes
   Dimitrios Pantazis     : SARC Basis sets
   Anastasios Papadopoulos: AUTO-CI, single reference methods and gradients
   Taras Petrenko         : DFT Hessian,TD-DFT gradient, ASA, ECA, R-Raman, ABS, FL, XAS/XES, NRVS
   Peter Pinski           : DLPNO-MP2, DLPNO-MP2 Gradient
   Christoph Reimann      : Effective Core Potentials
   Marius Retegan         : Local ZFS, SOC
   Christoph Riplinger    : Optimizer, TS searches, QM/MM, DLPNO-CCSD(T), (RO)-DLPNO pert. Triples
   Tobias Risthaus        : Range-separated hybrids, TD-DFT gradient, RPA, STAB
   Michael Roemelt        : Original ROCIS implementation
   Masaaki Saitow         : Open-shell DLPNO-CCSD energy and density
   Barbara Sandhoefer     : DKH picture change effects
   Avijit Sen             : IP-ROCIS
   Kantharuban Sivalingam : CASSCF convergence, NEVPT2, FIC-MRCI
   Bernardo de Souza      : ESD, SOC TD-DFT
   Georgi Stoychev        : AutoAux, RI-MP2 NMR, DLPNO-MP2 response
   Willem Van den Heuvel  : Paramagnetic NMR
   Boris Wezisla          : Elementary symmetry handling
   Frank Wennmohs         : Technical directorship


 We gratefully acknowledge several colleagues who have allowed us to
 interface, adapt or use parts of their codes:
   Stefan Grimme, W. Hujo, H. Kruse, P. Pracht,  : VdW corrections, initial TS optimization,
                  C. Bannwarth, S. Ehlert          DFT functionals, gCP, sTDA/sTD-DF
   Ed Valeev, F. Pavosevic, A. Kumar             : LibInt (2-el integral package), F12 methods
   Garnet Chan, S. Sharma, J. Yang, R. Olivares  : DMRG
   Ulf Ekstrom                                   : XCFun DFT Library
   Mihaly Kallay                                 : mrcc  (arbitrary order and MRCC methods)
   Jiri Pittner, Ondrej Demel                    : Mk-CCSD
   Frank Weinhold                                : gennbo (NPA and NBO analysis)
   Christopher J. Cramer and Donald G. Truhlar   : smd solvation model
   Lars Goerigk                                  : TD-DFT with DH, B97 family of functionals
   V. Asgeirsson, H. Jonsson                     : NEB implementation
   FAccTs GmbH                                   : IRC, NEB, NEB-TS, DLPNO-Multilevel, CI-OPT
                                                   MM, QMMM, 2- and 3-layer-ONIOM, Crystal-QMMM,
                                                   LR-CPCM, SF, NACMEs, symmetry and pop. for TD-DFT,
                                                   nearIR, NL-DFT gradient (VV10), updates on ESD,
                                                   ML-optimized integration grids
   S Lehtola, MJT Oliveira, MAL Marques          : LibXC Library
   Liviu Ungur et al                             : ANISO software


 Your calculation uses the libint2 library for the computation of 2-el integrals
 For citations please refer to: http://libint.valeyev.net

 Your ORCA version has been built with support for libXC version: 5.1.0
 For citations please refer to: https://tddft.org/programs/libxc/

 This ORCA versions uses:
   CBLAS   interface :  Fast vector & matrix operations
   LAPACKE interface :  Fast linear algebra routines
   SCALAPACK package :  Parallel linear algebra routines
   Shared memory     :  Shared parallel matrices
   BLAS/LAPACK       :  OpenBLAS 0.3.15  USE64BITINT DYNAMIC_ARCH NO_AFFINITY SkylakeX SINGLE_THREADED
        Core in use  :  SkylakeX
   Copyright (c) 2011-2014, The OpenBLAS Project


================================================================================

----- Orbital basis set information -----
Your calculation utilizes the basis: aug-cc-pVTZ-J 
  Obtained from the EMSL Basis Set Exchange (bse.pnl.gov) Feb. 2017
  H, C-O : P. F. Provasi, G. A. Aucar, S. P. A. Sauer, J. Chem. Phys. 115, 1324 (2001)
           R. A. Kendall, T. H. Dunning, Jr., R. J. Harrison, J. Chem. Phys. 96, 6796 (1992)
           T. Enevoldsen, J. Oddershede, S. P. A. Sauer, Theor. Chem. Acc. 100, 275 (1998)
           T. H. Dunning, Jr., J. Chem. Phys. 90, 1007 (1989)
       B : P. F. Provasi, S. P. A. Sauer, J. Chem. Phys. 133, 054308 (2010)
           T. Enevoldsen, J. Oddershede, S. P. A. Sauer, Theor. Chem. Acc. 100, 275 (1998)
           T. H. Dunning, Jr., J. Chem. Phys. 90, 1007 (1989)
       F : R. A. Kendall, T. H. Dunning, Jr., R. J. Harrison, J. Chem. Phys. 96, 6796 (1992)
           T. Enevoldsen, J. Oddershede, S. P. A. Sauer, Theor. Chem. Acc. 100, 275 (1998)
           T. H. Dunning, Jr., J. Chem. Phys. 90, 1007 (1989)
           V. Barone, P. F. Provasi, J. E. Peralta, J. P. Snyder, S. P. A. Sauer, R. H. Contreras, J. Phys. Chem. A 107, 4748 (2003)
      Al : D. E. Woon, T. H. Dunning, Jr., J. Chem. Phys. 98, 1358 (1993)
           P. F. Provasi, S. P. A. Sauer, J. Chem. Phys. 133, 054308 (2010)
           T. Enevoldsen, J. Oddershede, S. P. A. Sauer, Theor. Chem. Acc. 100, 275 (1998)
      Si : D. E. Woon, T. H. Dunning, Jr., J. Chem. Phys. 98, 1358 (1993)
           P. F. Provasi, S. P. A. Sauer, J. Chem. Phys. 133, 054308 (2010)
           S. P. A. Sauer, W. T. Raynes, J. Chem. Phys. 113, 3121 (2000)
           S. P. A. Sauer, W. T. Raynes, R. A. Nicholls, J. Chem. Phys. 115, 5994 (2001)
   P, Cl : D. E. Woon, T. H. Dunning, Jr., J. Chem. Phys. 98, 1358 (1993)
           P. F. Provasi, S. P. A. Sauer, J. Chem. Phys. 133, 054308 (2010)
       S : D. E. Woon, T. H. Dunning, Jr., J. Chem. Phys. 98, 1358 (1993)
           P. F. Provasi, G. A. Aucar, S. P. A. Sauer, J. Chem. Phys. 115, 1324 (2001)
   Sc-Zn : E. D. Hedegård, J. Kongsted, S. P. A. Sauer, J. Chem. Theory Comput. 7, 4077 (2011)
           N. B. Balabanov, K. A. Peterson, J. Chem. Phys. 123, 64107 (2005)
      Se : Y. Yu. Rusakov, L. B. Krivdin, S. P. A. Sauer, E. P. Levanova, G. G. Levkovskaya, Magn. Res. Chem. 48, 44-52 (2010)

================================================================================
                                        WARNINGS
                       Please study these warnings very carefully!
================================================================================


WARNING: Geometry Optimization
  ===> : Switching off AutoStart
         For restart on a previous wavefunction, please use MOREAD

INFO   : the flag for use of the SHARK integral package has been found!



***************************************
The coordinates will be read from file: 
***************************************


================================================================================

----- Orbital basis set information -----
Your calculation utilizes the basis: aug-cc-pVTZ-J 
  Obtained from the EMSL Basis Set Exchange (bse.pnl.gov) Feb. 2017
  H, C-O : P. F. Provasi, G. A. Aucar, S. P. A. Sauer, J. Chem. Phys. 115, 1324 (2001)
           R. A. Kendall, T. H. Dunning, Jr., R. J. Harrison, J. Chem. Phys. 96, 6796 (1992)
           T. Enevoldsen, J. Oddershede, S. P. A. Sauer, Theor. Chem. Acc. 100, 275 (1998)
           T. H. Dunning, Jr., J. Chem. Phys. 90, 1007 (1989)
       B : P. F. Provasi, S. P. A. Sauer, J. Chem. Phys. 133, 054308 (2010)
           T. Enevoldsen, J. Oddershede, S. P. A. Sauer, Theor. Chem. Acc. 100, 275 (1998)
           T. H. Dunning, Jr., J. Chem. Phys. 90, 1007 (1989)
       F : R. A. Kendall, T. H. Dunning, Jr., R. J. Harrison, J. Chem. Phys. 96, 6796 (1992)
           T. Enevoldsen, J. Oddershede, S. P. A. Sauer, Theor. Chem. Acc. 100, 275 (1998)
           T. H. Dunning, Jr., J. Chem. Phys. 90, 1007 (1989)
           V. Barone, P. F. Provasi, J. E. Peralta, J. P. Snyder, S. P. A. Sauer, R. H. Contreras, J. Phys. Chem. A 107, 4748 (2003)
      Al : D. E. Woon, T. H. Dunning, Jr., J. Chem. Phys. 98, 1358 (1993)
           P. F. Provasi, S. P. A. Sauer, J. Chem. Phys. 133, 054308 (2010)
           T. Enevoldsen, J. Oddershede, S. P. A. Sauer, Theor. Chem. Acc. 100, 275 (1998)
      Si : D. E. Woon, T. H. Dunning, Jr., J. Chem. Phys. 98, 1358 (1993)
           P. F. Provasi, S. P. A. Sauer, J. Chem. Phys. 133, 054308 (2010)
           S. P. A. Sauer, W. T. Raynes, J. Chem. Phys. 113, 3121 (2000)
           S. P. A. Sauer, W. T. Raynes, R. A. Nicholls, J. Chem. Phys. 115, 5994 (2001)
   P, Cl : D. E. Woon, T. H. Dunning, Jr., J. Chem. Phys. 98, 1358 (1993)
           P. F. Provasi, S. P. A. Sauer, J. Chem. Phys. 133, 054308 (2010)
       S : D. E. Woon, T. H. Dunning, Jr., J. Chem. Phys. 98, 1358 (1993)
           P. F. Provasi, G. A. Aucar, S. P. A. Sauer, J. Chem. Phys. 115, 1324 (2001)
   Sc-Zn : E. D. Hedegård, J. Kongsted, S. P. A. Sauer, J. Chem. Theory Comput. 7, 4077 (2011)
           N. B. Balabanov, K. A. Peterson, J. Chem. Phys. 123, 64107 (2005)
      Se : Y. Yu. Rusakov, L. B. Krivdin, S. P. A. Sauer, E. P. Levanova, G. G. Levkovskaya, Magn. Res. Chem. 48, 44-52 (2010)

================================================================================
                                        WARNINGS
                       Please study these warnings very carefully!
================================================================================


INFO   : the flag for use of the SHARK integral package has been found!

================================================================================
                                       INPUT FILE
================================================================================
NAME = /beegfs/scratch/jdstates/Radical_Geometry/CX3_geometry_calcs/input_files/CX3_radical/C-H-H-H_radical_IN-PROGRESS/C-H-H-H_radical.inp
|  1> # Formula: C-H-H-H_radical
|  2> 
|  3> ! UKS NORI TightSCF PBE0 aug-cc-PVTZ-J xyzfile opt NOPOP
|  4> %base "C-H-H-H_radical_opt" 
|  5> 
|  6> * xyz 0 2
|  7> C	0.000	-0.001	0.245
|  8> H	1.026	-0.238	-0.082
|  9> H	-0.718	-0.774	-0.082
| 10> H	-0.308	1.012	-0.081
| 11> *
| 12> 
| 13> $new_job
| 14> ! UKS NORI PBE0 aug-cc-PVTZ-J NBO
| 15> %base "C-H-H-H_radical_EPR"
| 16> 
| 17> *xyzfile 0 2
| 18> 
| 19> %EPRNMR
| 20> 	GTENSOR		TRUE
| 21> 	NUCLEI		= ALL C  {AISO, ADIP, AORB}
| 22> 	NUCLEI		= ALL H  {AISO, ADIP, AORB}
| 23> 	NUCLEI		= ALL F  {AISO, ADIP, AORB}
| 24> 	NUCLEI		= ALL Cl {AISO, ADIP, AORB}
| 25> 	NUCLEI		= ALL Br {AISO, ADIP, AORB}
| 26> 	NUCLEI		= ALL I  {AISO, ADIP, AORB}
| 27> END
| 28> 
| 29> %NBO
| 30> 	NBOKEYLIST = "$NBO NBO NPA AONBO=C PRINT=1 ARCHIVE $END"
| 31> END
| 32> 
| 33>                          ****END OF INPUT****
================================================================================


                 $$$$$$$$$$$$$$$$$$$$$$$$$$$$$$$$$$$$$$$$$$$$$$ 
                 $ THERE ARE  2 JOBS TO BE PROCESSED THIS RUN $
                 $$$$$$$$$$$$$$$$$$$$$$$$$$$$$$$$$$$$$$$$$$$$$$ 




                 $$$$$$$$$$$$$$$$  JOB NUMBER  1 $$$$$$$$$$$$$$


                       *****************************
                       * Geometry Optimization Run *
                       *****************************

Geometry optimization settings:
Update method            Update   .... BFGS
Choice of coordinates    CoordSys .... Z-matrix Internals
Initial Hessian          InHess   .... Almoef's Model

Convergence Tolerances:
Energy Change            TolE     ....  5.0000e-06 Eh
Max. Gradient            TolMAXG  ....  3.0000e-04 Eh/bohr
RMS Gradient             TolRMSG  ....  1.0000e-04 Eh/bohr
Max. Displacement        TolMAXD  ....  4.0000e-03 bohr
RMS Displacement         TolRMSD  ....  2.0000e-03 bohr
Strict Convergence                ....  False
------------------------------------------------------------------------------
                        ORCA OPTIMIZATION COORDINATE SETUP
------------------------------------------------------------------------------

The optimization will be done in new redundant internal coordinates
Making redundant internal coordinates   ...  (new redundants) done
Evaluating the initial hessian          ...  (Almloef) done
Evaluating the coordinates              ...  done
Calculating the B-matrix                .... done
Calculating the G-matrix                .... done
Diagonalizing the G-matrix              .... done
The first mode is                       ....    1
The number of degrees of freedom        ....    6

    -----------------------------------------------------------------
                    Redundant Internal Coordinates


    -----------------------------------------------------------------
         Definition                    Initial Value    Approx d2E/dq
    -----------------------------------------------------------------
      1. B(H   1,C   0)                  1.1026         0.343785   
      2. B(H   2,C   0)                  1.1045         0.341385   
      3. B(H   3,C   0)                  1.1078         0.337257   
      4. A(H   1,C   0,H   3)          111.5905         0.285791   
      5. A(H   2,C   0,H   3)          111.8445         0.285480   
      6. A(H   1,C   0,H   2)          111.5093         0.286334   
      7. I(H   1,H   3,H   2,C   0)    -49.0391         0.005833   
    -----------------------------------------------------------------

Number of atoms                         .... 4
Number of degrees of freedom            .... 7

         *************************************************************
         *                GEOMETRY OPTIMIZATION CYCLE   1            *
         *************************************************************
---------------------------------
CARTESIAN COORDINATES (ANGSTROEM)
---------------------------------
  C      0.000000   -0.001000    0.245000
  H      1.026000   -0.238000   -0.082000
  H     -0.718000   -0.774000   -0.082000
  H     -0.308000    1.012000   -0.081000

----------------------------
CARTESIAN COORDINATES (A.U.)
----------------------------
  NO LB      ZA    FRAG     MASS         X           Y           Z
   0 C     6.0000    0    12.011    0.000000   -0.001890    0.462983
   1 H     1.0000    0     1.008    1.938859   -0.449755   -0.154958
   2 H     1.0000    0     1.008   -1.356823   -1.462648   -0.154958
   3 H     1.0000    0     1.008   -0.582036    1.912403   -0.153068

--------------------------------
INTERNAL COORDINATES (ANGSTROEM)
--------------------------------
 C      0   0   0     0.000000000000     0.00000000     0.00000000
 H      1   0   0     1.102621421885     0.00000000     0.00000000
 H      1   2   0     1.104527953472   111.50934883     0.00000000
 H      1   2   3     1.107839789861   111.59054612   234.12068318

---------------------------
INTERNAL COORDINATES (A.U.)
---------------------------
 C      0   0   0     0.000000000000     0.00000000     0.00000000
 H      1   0   0     2.083652516758     0.00000000     0.00000000
 H      1   2   0     2.087255339322   111.50934883     0.00000000
 H      1   2   3     2.093513803099   111.59054612   234.12068318

---------------------
BASIS SET INFORMATION
---------------------
There are 2 groups of distinct atoms

 Group   1 Type C   : 15s6p3d1f contracted to 9s5p3d1f pattern {711111111/21111/111/1}
 Group   2 Type H   : 10s3p1d contracted to 6s3p1d pattern {511111/111/1}

Atom   0C    basis set group =>   1
Atom   1H    basis set group =>   2
Atom   2H    basis set group =>   2
Atom   3H    basis set group =>   2
------------------------------------------------------------------------------
                           ORCA GTO INTEGRAL CALCULATION
------------------------------------------------------------------------------
------------------------------------------------------------------------------
                   ___                                                        
                  /   \      - P O W E R E D   B Y -                         
                 /     \                                                     
                 |  |  |   _    _      __       _____    __    __             
                 |  |  |  | |  | |    /  \     |  _  \  |  |  /  |          
                  \  \/   | |  | |   /    \    | | | |  |  | /  /          
                 / \  \   | |__| |  /  /\  \   | |_| |  |  |/  /          
                |  |  |   |  __  | /  /__\  \  |    /   |      \           
                |  |  |   | |  | | |   __   |  |    \   |  |\   \          
                \     /   | |  | | |  |  |  |  | |\  \  |  | \   \       
                 \___/    |_|  |_| |__|  |__|  |_| \__\ |__|  \__/        
                                                                              
                      - O R C A' S   B I G   F R I E N D -                    
                                      &                                       
                       - I N T E G R A L  F E E D E R -                       
                                                                              
 v1 FN, 2020, v2 2021                                                         
------------------------------------------------------------------------------


Reading SHARK input file C-H-H-H_radical_opt.SHARKINP.tmp ... ok
----------------------
SHARK INTEGRAL PACKAGE
----------------------

Number of atoms                             ...      4
Number of basis functions                   ...    106
Number of shells                            ...     48
Maximum angular momentum                    ...      3
Integral batch strategy                     ... SHARK/LIBINT Hybrid
RI-J (if used) integral strategy            ... SPLIT-RIJ (Revised 2003 algorithm where possible)
Printlevel                                  ...      1
Contraction scheme used                     ... SEGMENTED contraction
Coulomb Range Separation                    ... NOT USED
Exchange Range Separation                   ... NOT USED
Finite Nucleus Model                        ... NOT USED
Auxiliary Coulomb fitting basis             ... NOT available
Auxiliary J/K fitting basis                 ... NOT available
Auxiliary Correlation fitting basis         ... NOT available
Auxiliary 'external' fitting basis          ... NOT available
Integral threshold                          ...     2.500000e-11
Primitive cut-off                           ...     2.500000e-12
Primitive pair pre-selection threshold      ...     2.500000e-12

Calculating pre-screening integrals         ... done (  0.0 sec) Dimension = 48
Organizing shell pair data                  ... done (  0.0 sec)
Shell pair information
Total number of shell pairs                 ...      1176
Shell pairs after pre-screening             ...      1152
Total number of primitive shell pairs       ...      2330
Primitive shell pairs kept                  ...      2057
          la=0 lb=0:    354 shell pairs
          la=1 lb=0:    378 shell pairs
          la=1 lb=1:    105 shell pairs
          la=2 lb=0:    162 shell pairs
          la=2 lb=1:     84 shell pairs
          la=2 lb=2:     21 shell pairs
          la=3 lb=0:     27 shell pairs
          la=3 lb=1:     14 shell pairs
          la=3 lb=2:      6 shell pairs
          la=3 lb=3:      1 shell pairs

Calculating one electron integrals          ... done (  0.0 sec)
Calculating Nuclear repulsion               ... done (  0.0 sec) ENN=      9.488424370235 Eh

SHARK setup successfully completed in   0.2 seconds

Maximum memory used throughout the entire GTOINT-calculation: 14.7 MB
-------------------------------------------------------------------------------
                                 ORCA SCF
-------------------------------------------------------------------------------

------------
SCF SETTINGS
------------
Hamiltonian:
 Density Functional     Method          .... DFT(GTOs)
 Exchange Functional    Exchange        .... PBE
   PBE kappa parameter   XKappa         ....  0.804000
   PBE mue parameter    XMuePBE         ....  0.219520
 Correlation Functional Correlation     .... PBE
   PBE beta parameter  CBetaPBE         ....  0.066725
 LDA part of GGA corr.  LDAOpt          .... PW91-LDA
 Gradients option       PostSCFGGA      .... off
 Hybrid DFT is turned on
   Fraction HF Exchange ScalHFX         ....  0.250000
   Scaling of DF-GGA-X  ScalDFX         ....  0.750000
   Scaling of DF-GGA-C  ScalDFC         ....  1.000000
   Scaling of DF-LDA-C  ScalLDAC        ....  1.000000
   Perturbative correction              ....  0.000000
   Density functional embedding theory  .... OFF
   NL short-range parameter             ....  6.900000


General Settings:
 Integral files         IntName         .... C-H-H-H_radical_opt
 Hartree-Fock type      HFTyp           .... UHF
 Total Charge           Charge          ....    0
 Multiplicity           Mult            ....    2
 Number of Electrons    NEL             ....    9
 Basis Dimension        Dim             ....  106
 Nuclear Repulsion      ENuc            ....      9.4884243702 Eh

Convergence Acceleration:
 DIIS                   CNVDIIS         .... on
   Start iteration      DIISMaxIt       ....    12
   Startup error        DIISStart       ....  0.200000
   # of expansion vecs  DIISMaxEq       ....     5
   Bias factor          DIISBfac        ....   1.050
   Max. coefficient     DIISMaxC        ....  10.000
 Trust-Rad. Augm. Hess. CNVTRAH         .... auto
   Auto Start mean grad. ratio tolernc. ....  1.125000
   Auto Start start iteration           ....    20
   Auto Start num. interpolation iter.  ....    10
   Max. Number of Micro iterations      ....    16
   Max. Number of Macro iterations      .... Maxiter - #DIIS iter
   Number of Davidson start vectors     ....     2
   Converg. threshold I  (grad. norm)   ....   1.000e-05
   Converg. threshold II (energy diff.) ....   1.000e-08
   Grad. Scal. Fac. for Micro threshold ....   0.100
   Minimum threshold for Micro iter.    ....   0.010
   NR start threshold (gradient norm)   ....   0.001
   Initial trust radius                 ....   0.400
   Minimum AH scaling param. (alpha)    ....   1.000
   Maximum AH scaling param. (alpha)    .... 1000.000
   Orbital update algorithm             .... Taylor
   White noise on init. David. guess    .... on
   Maximum white noise                  ....   0.010
   Quad. conv. algorithm                .... NR
 SOSCF                  CNVSOSCF        .... off
 Level Shifting         CNVShift        .... on
   Level shift para.    LevelShift      ....    0.2500
   Turn off err/grad.   ShiftErr        ....    0.0010
 Zerner damping         CNVZerner       .... off
 Static damping         CNVDamp         .... on
   Fraction old density DampFac         ....    0.7000
   Max. Damping (<1)    DampMax         ....    0.9800
   Min. Damping (>=0)   DampMin         ....    0.0000
   Turn off err/grad.   DampErr         ....    0.1000
 Fernandez-Rico         CNVRico         .... off

SCF Procedure:
 Maximum # iterations   MaxIter         ....   125
 SCF integral mode      SCFMode         .... Direct
   Integral package                     .... SHARK and LIBINT hybrid scheme
 Reset frequency        DirectResetFreq ....    20
 Integral Threshold     Thresh          ....  2.500e-11 Eh
 Primitive CutOff       TCut            ....  2.500e-12 Eh

Convergence Tolerance:
 Convergence Check Mode ConvCheckMode   .... Total+1el-Energy
 Convergence forced     ConvForced      .... 0
 Energy Change          TolE            ....  1.000e-08 Eh
 1-El. energy change                    ....  1.000e-05 Eh
 DIIS Error             TolErr          ....  5.000e-07


Diagonalization of the overlap matrix:
Smallest eigenvalue                        ... 2.256e-04
Time for diagonalization                   ...    0.004 sec
Threshold for overlap eigenvalues          ... 1.000e-08
Number of eigenvalues below threshold      ... 0
Time for construction of square roots      ...    0.003 sec
Total time needed                          ...    0.007 sec

Time for model grid setup =    0.037 sec

------------------------------
INITIAL GUESS: MODEL POTENTIAL
------------------------------
Loading Hartree-Fock densities                     ... done
Calculating cut-offs                               ... done
Initializing the effective Hamiltonian             ... done
Setting up the integral package (SHARK)            ... done
Starting the Coulomb interaction                   ... done (   0.0 sec)
Reading the grid                                   ... done
Mapping shells                                     ... done
Starting the XC term evaluation                    ... done (   0.0 sec)
  promolecular density results
     # of electrons  =      8.998982494
     EX              =     -5.922204616
     EC              =     -0.258097695
     EX+EC           =     -6.180302311
Transforming the Hamiltonian                       ... done (   0.0 sec)
Diagonalizing the Hamiltonian                      ... done (   0.0 sec)
Back transforming the eigenvectors                 ... done (   0.0 sec)
Now organizing SCF variables                       ... done
                      ------------------
                      INITIAL GUESS DONE (   0.1 sec)
                      ------------------
-------------------
DFT GRID GENERATION
-------------------

General Integration Accuracy     IntAcc      ... 4.388
Radial Grid Type                 RadialGrid  ... OptM3 with GC (2021)
Angular Grid (max. ang.)         AngularGrid ... 4 (Lebedev-302)
Angular grid pruning method      GridPruning ... 4 (adaptive)
Weight generation scheme         WeightScheme... Becke
Basis function cutoff            BFCut       ... 1.0000e-11
Integration weight cutoff        WCut        ... 1.0000e-14
Angular grids for H and He will be reduced by one unit
Partially contracted basis set               ... off
Rotationally invariant grid construction     ... off

Total number of grid points                  ...    17043
Total number of batches                      ...      267
Average number of points per batch           ...       63
Average number of grid points per atom       ...     4261
Time for grid setup =    0.124 sec

--------------
SCF ITERATIONS
--------------
ITER       Energy         Delta-E        Max-DP      RMS-DP      [F,P]     Damp
               ***  Starting incremental Fock matrix formation  ***
  0    -39.7587437840   0.000000000000 0.01835113  0.00030967  0.0757709 0.7000
  1    -39.7728472438  -0.014103459824 0.01395153  0.00022933  0.0431016 0.7000
                               ***Turning on DIIS***
  2    -39.7795646119  -0.006717368064 0.02630735  0.00043640  0.0265256 0.0000
  3    -39.7894253043  -0.009860692409 0.00916978  0.00016870  0.0241149 0.0000
  4    -39.7918641986  -0.002438894293 0.00234311  0.00004958  0.0039108 0.0000
  5    -39.7919484650  -0.000084266383 0.00107443  0.00002375  0.0013262 0.0000
  6    -39.7919640327  -0.000015567775 0.00074865  0.00001776  0.0006121 0.0000
  7    -39.7919686153  -0.000004582620 0.00010552  0.00000304  0.0000758 0.0000
  8    -39.7919687634  -0.000000148051 0.00001497  0.00000044  0.0000137 0.0000
  9    -39.7919687681  -0.000000004741 0.00000356  0.00000009  0.0000053 0.0000
 10    -39.7919687683  -0.000000000208 0.00000122  0.00000003  0.0000011 0.0000
                 **** Energy Check signals convergence ****

               *****************************************************
               *                     SUCCESS                       *
               *           SCF CONVERGED AFTER  11 CYCLES          *
               *****************************************************


----------------
TOTAL SCF ENERGY
----------------

Total Energy       :          -39.79196877 Eh           -1082.79452 eV

Components:
Nuclear Repulsion  :            9.48842437 Eh             258.19315 eV
Electronic Energy  :          -49.28039314 Eh           -1340.98767 eV
One Electron Energy:          -71.29023132 Eh           -1939.90582 eV
Two Electron Energy:           22.00983818 Eh             598.91815 eV

Virial components:
Potential Energy   :          -79.29846150 Eh           -2157.82084 eV
Kinetic Energy     :           39.50649273 Eh            1075.02632 eV
Virial Ratio       :            2.00722605


DFT components:
N(Alpha)           :        5.000008009843 electrons
N(Beta)            :        4.000000623564 electrons
N(Total)           :        9.000008633408 electrons
E(X)               :       -4.609712026412 Eh       
E(C)               :       -0.258277072330 Eh       
E(XC)              :       -4.867989098742 Eh       
DFET-embed. en.    :        0.000000000000 Eh       

---------------
SCF CONVERGENCE
---------------

  Last Energy change         ...    2.5892e-11  Tolerance :   1.0000e-08
  Last MAX-Density change    ...    7.3468e-07  Tolerance :   1.0000e-07
  Last RMS-Density change    ...    2.0395e-08  Tolerance :   5.0000e-09
  Last DIIS Error            ...    6.3096e-07  Tolerance :   5.0000e-07

             **** THE GBW FILE WAS UPDATED (C-H-H-H_radical_opt.gbw) ****
             **** DENSITY C-H-H-H_radical_opt.scfp WAS UPDATED ****
             **** ENERGY FILE WAS UPDATED (C-H-H-H_radical_opt.en.tmp) ****
----------------------
UHF SPIN CONTAMINATION
----------------------

Warning: in a DFT calculation there is little theoretical justification to 
         calculate <S**2> as in Hartree-Fock theory. We will do it anyways
         but you should keep in mind that the values have only limited relevance

Expectation value of <S**2>     :     0.753740
Ideal value S*(S+1) for S=0.5   :     0.750000
Deviation                       :     0.003740

             **** THE GBW FILE WAS UPDATED (C-H-H-H_radical_opt.gbw) ****
             **** DENSITY C-H-H-H_radical_opt.scfp WAS UPDATED ****
----------------
ORBITAL ENERGIES
----------------
                 SPIN UP ORBITALS
  NO   OCC          E(Eh)            E(eV) 
   0   1.0000     -10.248544      -278.8771 
   1   1.0000      -0.709252       -19.2997 
   2   1.0000      -0.419984       -11.4284 
   3   1.0000      -0.419685       -11.4202 
   4   1.0000      -0.276295        -7.5184 
   5   0.0000      -0.000707        -0.0192 
   6   0.0000       0.031265         0.8508 
   7   0.0000       0.031338         0.8528 
   8   0.0000       0.054750         1.4898 
   9   0.0000       0.095422         2.5966 
  10   0.0000       0.095536         2.5997 
  11   0.0000       0.095815         2.6073 
  12   0.0000       0.142021         3.8646 
  13   0.0000       0.142437         3.8759 
  14   0.0000       0.167155         4.5485 
  15   0.0000       0.181518         4.9394 
  16   0.0000       0.181755         4.9458 
  17   0.0000       0.262527         7.1437 
  18   0.0000       0.288388         7.8474 
  19   0.0000       0.288495         7.8503 
  20   0.0000       0.315905         8.5962 
  21   0.0000       0.320378         8.7179 
  22   0.0000       0.334791         9.1101 
  23   0.0000       0.334880         9.1125 
  24   0.0000       0.337264         9.1774 
  25   0.0000       0.354704         9.6520 
  26   0.0000       0.355091         9.6625 
  27   0.0000       0.423786        11.5318 
  28   0.0000       0.424385        11.5481 
  29   0.0000       0.529569        14.4103 
  30   0.0000       0.535917        14.5831 
  31   0.0000       0.536301        14.5935 
  32   0.0000       0.574501        15.6330 
  33   0.0000       0.739408        20.1203 
  34   0.0000       0.739976        20.1358 
  35   0.0000       0.799679        21.7604 
  36   0.0000       0.799850        21.7650 
  37   0.0000       0.856112        23.2960 
  38   0.0000       0.968361        26.3504 
  39   0.0000       1.031924        28.0801 
  40   0.0000       1.106650        30.1135 
  41   0.0000       1.108007        30.1504 
  42   0.0000       1.141990        31.0751 
  43   0.0000       1.142335        31.0845 
  44   0.0000       1.159440        31.5500 
  45   0.0000       1.399667        38.0869 
  46   0.0000       1.400759        38.1166 
  47   0.0000       1.452820        39.5332 
  48   0.0000       1.466662        39.9099 
  49   0.0000       1.467210        39.9248 
  50   0.0000       2.035999        55.4024 
  51   0.0000       2.133883        58.0659 
  52   0.0000       2.134070        58.0710 
  53   0.0000       2.200477        59.8780 
  54   0.0000       2.428355        66.0789 
  55   0.0000       2.428911        66.0940 
  56   0.0000       2.661960        72.4356 
  57   0.0000       2.819975        76.7354 
  58   0.0000       2.821613        76.7800 
  59   0.0000       2.872647        78.1687 
  60   0.0000       2.885413        78.5161 
  61   0.0000       3.004317        81.7516 
  62   0.0000       3.007245        81.8313 
  63   0.0000       3.058234        83.2188 
  64   0.0000       3.095699        84.2383 
  65   0.0000       3.096148        84.2505 
  66   0.0000       3.311413        90.1081 
  67   0.0000       3.317511        90.2741 
  68   0.0000       3.321591        90.3851 
  69   0.0000       3.389212        92.2252 
  70   0.0000       3.390792        92.2681 
  71   0.0000       3.518777        95.7508 
  72   0.0000       3.713628       101.0529 
  73   0.0000       3.861692       105.0820 
  74   0.0000       3.864525       105.1591 
  75   0.0000       3.978206       108.2525 
  76   0.0000       3.978304       108.2551 
  77   0.0000       4.080521       111.0366 
  78   0.0000       4.082351       111.0864 
  79   0.0000       4.104411       111.6867 
  80   0.0000       4.172677       113.5443 
  81   0.0000       4.601660       125.2175 
  82   0.0000       4.602673       125.2451 
  83   0.0000       4.697084       127.8141 
  84   0.0000       4.942550       134.4936 
  85   0.0000       4.947741       134.6349 
  86   0.0000       5.001446       136.0963 
  87   0.0000       5.147504       140.0707 
  88   0.0000       5.156712       140.3213 
  89   0.0000       5.261230       143.1653 
  90   0.0000       5.692071       154.8891 
  91   0.0000       5.756684       156.6473 
  92   0.0000       5.762206       156.7976 
  93   0.0000       8.888379       241.8651 
  94   0.0000       9.429353       256.5857 
  95   0.0000       9.429758       256.5968 
  96   0.0000      10.151869       276.2464 
  97   0.0000      10.569961       287.6233 
  98   0.0000      10.589575       288.1570 
  99   0.0000      12.200531       331.9933 
 100   0.0000      46.492264      1265.1188 
 101   0.0000      67.363868      1833.0640 
 102   0.0000      67.369767      1833.2246 
 103   0.0000      67.373769      1833.3335 
 104   0.0000     170.773741      4646.9897 
 105   0.0000     800.173668     21773.8325 

                 SPIN DOWN ORBITALS
  NO   OCC          E(Eh)            E(eV) 
   0   1.0000     -10.232244      -278.4335 
   1   1.0000      -0.667875       -18.1738 
   2   1.0000      -0.408086       -11.1046 
   3   1.0000      -0.407794       -11.0966 
   4   0.0000      -0.074854        -2.0369 
   5   0.0000       0.005498         0.1496 
   6   0.0000       0.033703         0.9171 
   7   0.0000       0.033778         0.9192 
   8   0.0000       0.080662         2.1949 
   9   0.0000       0.100175         2.7259 
  10   0.0000       0.100291         2.7290 
  11   0.0000       0.102600         2.7919 
  12   0.0000       0.148118         4.0305 
  13   0.0000       0.148476         4.0402 
  14   0.0000       0.188336         5.1249 
  15   0.0000       0.191048         5.1987 
  16   0.0000       0.191363         5.2073 
  17   0.0000       0.286612         7.7991 
  18   0.0000       0.292750         7.9661 
  19   0.0000       0.292862         7.9692 
  20   0.0000       0.316229         8.6050 
  21   0.0000       0.336563         9.1583 
  22   0.0000       0.346150         9.4192 
  23   0.0000       0.346232         9.4214 
  24   0.0000       0.346571         9.4307 
  25   0.0000       0.362427         9.8621 
  26   0.0000       0.362829         9.8731 
  27   0.0000       0.438452        11.9309 
  28   0.0000       0.438979        11.9452 
  29   0.0000       0.541603        14.7378 
  30   0.0000       0.542026        14.7493 
  31   0.0000       0.554220        15.0811 
  32   0.0000       0.617548        16.8043 
  33   0.0000       0.751273        20.4432 
  34   0.0000       0.751851        20.4589 
  35   0.0000       0.822816        22.3900 
  36   0.0000       0.823053        22.3964 
  37   0.0000       0.884600        24.0712 
  38   0.0000       1.002641        27.2832 
  39   0.0000       1.030843        28.0507 
  40   0.0000       1.116269        30.3752 
  41   0.0000       1.117628        30.4122 
  42   0.0000       1.167985        31.7825 
  43   0.0000       1.168366        31.7928 
  44   0.0000       1.188903        32.3517 
  45   0.0000       1.416779        38.5525 
  46   0.0000       1.418066        38.5875 
  47   0.0000       1.462919        39.8080 
  48   0.0000       1.474958        40.1357 
  49   0.0000       1.475773        40.1578 
  50   0.0000       2.067622        56.2629 
  51   0.0000       2.142952        58.3127 
  52   0.0000       2.143099        58.3167 
  53   0.0000       2.263866        61.6029 
  54   0.0000       2.452087        66.7247 
  55   0.0000       2.452698        66.7413 
  56   0.0000       2.710539        73.7575 
  57   0.0000       2.850830        77.5750 
  58   0.0000       2.852539        77.6215 
  59   0.0000       2.888241        78.5930 
  60   0.0000       2.909860        79.1813 
  61   0.0000       3.016392        82.0802 
  62   0.0000       3.019565        82.1665 
  63   0.0000       3.134819        85.3027 
  64   0.0000       3.159469        85.9735 
  65   0.0000       3.159923        85.9859 
  66   0.0000       3.314773        90.1996 
  67   0.0000       3.338896        90.8560 
  68   0.0000       3.342673        90.9588 
  69   0.0000       3.395089        92.3851 
  70   0.0000       3.396572        92.4254 
  71   0.0000       3.537101        96.2494 
  72   0.0000       3.721382       101.2639 
  73   0.0000       3.881702       105.6265 
  74   0.0000       3.884428       105.7007 
  75   0.0000       3.981141       108.3324 
  76   0.0000       3.981325       108.3374 
  77   0.0000       4.084760       111.1520 
  78   0.0000       4.086758       111.2063 
  79   0.0000       4.101974       111.6204 
  80   0.0000       4.180071       113.7455 
  81   0.0000       4.608868       125.4137 
  82   0.0000       4.609762       125.4380 
  83   0.0000       4.724642       128.5641 
  84   0.0000       4.968803       135.2080 
  85   0.0000       4.974076       135.3515 
  86   0.0000       5.011064       136.3580 
  87   0.0000       5.152055       140.1945 
  88   0.0000       5.161249       140.4447 
  89   0.0000       5.274241       143.5194 
  90   0.0000       5.718164       155.5991 
  91   0.0000       5.768186       156.9603 
  92   0.0000       5.773779       157.1125 
  93   0.0000       8.950819       243.5642 
  94   0.0000       9.439914       256.8731 
  95   0.0000       9.440265       256.8827 
  96   0.0000      10.160529       276.4820 
  97   0.0000      10.573103       287.7088 
  98   0.0000      10.592804       288.2448 
  99   0.0000      12.224718       332.6515 
 100   0.0000      46.510901      1265.6259 
 101   0.0000      67.360911      1832.9836 
 102   0.0000      67.366837      1833.1448 
 103   0.0000      67.370782      1833.2522 
 104   0.0000     170.782102      4647.2173 
 105   0.0000     800.177806     21773.9451 
-------
TIMINGS
-------

Total SCF time: 0 days 0 hours 0 min 9 sec 

Total time                  ....       9.691 sec
Sum of individual times     ....       9.360 sec  ( 96.6%)

Fock matrix formation       ....       8.979 sec  ( 92.6%)
  XC integration            ....       2.964 sec  ( 33.0% of F)
    Basis function eval.    ....       0.587 sec  ( 19.8% of XC)
    Density eval.           ....       0.637 sec  ( 21.5% of XC)
    XC-Functional eval.     ....       0.309 sec  ( 10.4% of XC)
    XC-Potential eval.      ....       1.215 sec  ( 41.0% of XC)
Diagonalization             ....       0.083 sec  (  0.9%)
Density matrix formation    ....       0.004 sec  (  0.0%)
Population analysis         ....       0.001 sec  (  0.0%)
Initial guess               ....       0.047 sec  (  0.5%)
Orbital Transformation      ....       0.000 sec  (  0.0%)
Orbital Orthonormalization  ....       0.000 sec  (  0.0%)
DIIS solution               ....       0.085 sec  (  0.9%)
Grid generation             ....       0.161 sec  (  1.7%)

Maximum memory used throughout the entire SCF-calculation: 234.4 MB

-------------------------   --------------------
FINAL SINGLE POINT ENERGY       -39.791968768322
-------------------------   --------------------

------------------------------------------------------------------------------
                         ORCA SCF GRADIENT CALCULATION
------------------------------------------------------------------------------

Gradient of the Kohn-Sham DFT energy:
Kohn-Sham wavefunction type      ... UKS
Hartree-Fock exchange scaling    ...    0.250
Number of operators              ...    2
Number of atoms                  ...    4
Basis set dimensions             ...  106
Integral neglect threshold       ... 2.5e-11
Integral primitive cutoff        ... 2.5e-12
SHARK Integral package           ... ON

Nuc. rep. gradient       (SHARK) ... done (  0.0 sec)
HCore & Overlap gradient (SHARK) ... done (  0.0 sec)
Two-Electron gradient    (SHARK) ... done (  1.9 sec)
Exchange-correlation gradient    ... done

------------------
CARTESIAN GRADIENT
------------------

   1   C   :    0.001268425   -0.001875219    0.041399802
   2   H   :    0.006105459   -0.001522816   -0.013467445
   3   H   :   -0.004850675   -0.005752689   -0.013719531
   4   H   :   -0.002523209    0.009150724   -0.014212826

Difference to translation invariance:
           :   -0.0000000000   -0.0000000000    0.0000000000

Difference to rotation invariance:
           :    0.0000064909    0.0000031691    0.0000057284

Norm of the cartesian gradient     ...    0.0497693819
RMS gradient                       ...    0.0143671830
MAX gradient                       ...    0.0413998019

-------
TIMINGS
-------

Total SCF gradient time            ...        2.577 sec

One electron gradient       ....       0.022 sec  (  0.9%)
Two electron gradient       ....       1.914 sec  ( 74.3%)
XC gradient                 ....       0.561 sec  ( 21.8%)

Maximum memory used throughout the entire SCFGRAD-calculation: 34.9 MB
------------------------------------------------------------------------------
                         ORCA GEOMETRY RELAXATION STEP
------------------------------------------------------------------------------

Reading the OPT-File                    .... done
Getting information on internals        .... done
Copying old internal coords+grads       .... done
Making the new internal coordinates     .... (new redundants).... done
Validating the new internal coordinates .... (new redundants).... done
Calculating the B-matrix                .... done
Calculating the G,G- and P matrices     .... done
Transforming gradient to internals      .... done
Projecting the internal gradient        .... done
Number of atoms                         ....   4
Number of internal coordinates          ....   7
Current Energy                          ....   -39.791968768 Eh
Current gradient norm                   ....     0.049769382 Eh/bohr
Maximum allowed component of the step   ....  0.300
Current trust radius                    ....  0.300
Evaluating the initial hessian          ....  (Almloef) done
Projecting the Hessian                  .... done
Forming the augmented Hessian           .... done
Diagonalizing the augmented Hessian     .... done
Last element of RFO vector              ....  0.967850977
Lowest eigenvalues of augmented Hessian:
 -0.006869591  0.084423726  0.285808212  0.286099789  0.337712778
Length of the computed step             ....  0.259879189
The final length of the internal step   ....  0.259879189
Converting the step to cartesian space:
 Initial RMS(Int)=    0.0982251008
Transforming coordinates:
 Iter   0:  RMS(Cart)=    0.0429394033 RMS(Int)=    0.0931811047
 Iter   1:  RMS(Cart)=    0.0031726307 RMS(Int)=    0.0061820538
 Iter   2:  RMS(Cart)=    0.0004260997 RMS(Int)=    0.0005708053
 Iter   3:  RMS(Cart)=    0.0000250068 RMS(Int)=    0.0000486512
 Iter   4:  RMS(Cart)=    0.0000039032 RMS(Int)=    0.0000051461
 Iter   5:  RMS(Cart)=    0.0000002070 RMS(Int)=    0.0000004153
 Iter   6:  RMS(Cart)=    0.0000000330 RMS(Int)=    0.0000000435
done
Storing new coordinates                 .... done

                                .--------------------.
          ----------------------|Geometry convergence|-------------------------
          Item                value                   Tolerance       Converged
          ---------------------------------------------------------------------
          RMS gradient        0.0116505312            0.0001000000      NO
          MAX gradient        0.0185621265            0.0003000000      NO
          RMS step            0.0982251008            0.0020000000      NO
          MAX step            0.2161391385            0.0040000000      NO
          ........................................................
          Max(Bonds)      0.0204      Max(Angles)    4.45
          Max(Dihed)        0.00      Max(Improp)   12.38
          ---------------------------------------------------------------------

The optimization has not yet converged - more geometry cycles are needed


    ---------------------------------------------------------------------------
                         Redundant Internal Coordinates
                            (Angstroem and degrees)

        Definition                    Value    dE/dq     Step     New-Value
    ----------------------------------------------------------------------------
     1. B(H   1,C   0)                1.1026  0.010002 -0.0151    1.0875   
     2. B(H   2,C   0)                1.1045  0.011241 -0.0171    1.0874   
     3. B(H   3,C   0)                1.1078  0.013252 -0.0204    1.0875   
     4. A(H   1,C   0,H   3)          111.59 -0.004627    4.31    115.90   
     5. A(H   2,C   0,H   3)          111.84 -0.012566    4.45    116.30   
     6. A(H   1,C   0,H   2)          111.51 -0.004927    4.36    115.87   
     7. I(H   1,H   3,H   2,C   0)    -49.04 -0.018562   12.38    -36.66   
    ----------------------------------------------------------------------------

         *************************************************************
         *                GEOMETRY OPTIMIZATION CYCLE   2            *
         *************************************************************
---------------------------------
CARTESIAN COORDINATES (ANGSTROEM)
---------------------------------
  C     -0.001730    0.000118    0.174505
  H      1.033240   -0.238791   -0.058894
  H     -0.722991   -0.779678   -0.058396
  H     -0.308518    1.017350   -0.057216

----------------------------
CARTESIAN COORDINATES (A.U.)
----------------------------
  NO LB      ZA    FRAG     MASS         X           Y           Z
   0 C     6.0000    0    12.011   -0.003270    0.000223    0.329767
   1 H     1.0000    0     1.008    1.952540   -0.451249   -0.111293
   2 H     1.0000    0     1.008   -1.366256   -1.473377   -0.110352
   3 H     1.0000    0     1.008   -0.583015    1.922513   -0.108122

--------------------------------
INTERNAL COORDINATES (ANGSTROEM)
--------------------------------
 C      0   0   0     0.000000000000     0.00000000     0.00000000
 H      1   0   0     1.087527006062     0.00000000     0.00000000
 H      1   2   0     1.087447534538   115.32246247     0.00000000
 H      1   2   3     1.087462102378   115.35607629   220.49310227

---------------------------
INTERNAL COORDINATES (A.U.)
---------------------------
 C      0   0   0     0.000000000000     0.00000000     0.00000000
 H      1   0   0     2.055128204700     0.00000000     0.00000000
 H      1   2   0     2.054978025284   115.32246247     0.00000000
 H      1   2   3     2.055005554513   115.35607629   220.49310227

------------------------------------------------------------------------------
                   ___                                                        
                  /   \      - P O W E R E D   B Y -                         
                 /     \                                                     
                 |  |  |   _    _      __       _____    __    __             
                 |  |  |  | |  | |    /  \     |  _  \  |  |  /  |          
                  \  \/   | |  | |   /    \    | | | |  |  | /  /          
                 / \  \   | |__| |  /  /\  \   | |_| |  |  |/  /          
                |  |  |   |  __  | /  /__\  \  |    /   |      \           
                |  |  |   | |  | | |   __   |  |    \   |  |\   \          
                \     /   | |  | | |  |  |  |  | |\  \  |  | \   \       
                 \___/    |_|  |_| |__|  |__|  |_| \__\ |__|  \__/        
                                                                              
                      - O R C A' S   B I G   F R I E N D -                    
                                      &                                       
                       - I N T E G R A L  F E E D E R -                       
                                                                              
 v1 FN, 2020, v2 2021                                                         
------------------------------------------------------------------------------


Reading SHARK input file C-H-H-H_radical_opt.SHARKINP.tmp ... ok
----------------------
SHARK INTEGRAL PACKAGE
----------------------

Number of atoms                             ...      4
Number of basis functions                   ...    106
Number of shells                            ...     48
Maximum angular momentum                    ...      3
Integral batch strategy                     ... SHARK/LIBINT Hybrid
RI-J (if used) integral strategy            ... SPLIT-RIJ (Revised 2003 algorithm where possible)
Printlevel                                  ...      1
Contraction scheme used                     ... SEGMENTED contraction
Coulomb Range Separation                    ... NOT USED
Exchange Range Separation                   ... NOT USED
Finite Nucleus Model                        ... NOT USED
Auxiliary Coulomb fitting basis             ... NOT available
Auxiliary J/K fitting basis                 ... NOT available
Auxiliary Correlation fitting basis         ... NOT available
Auxiliary 'external' fitting basis          ... NOT available
Integral threshold                          ...     2.500000e-11
Primitive cut-off                           ...     2.500000e-12
Primitive pair pre-selection threshold      ...     2.500000e-12

Calculating pre-screening integrals         ... done (  0.0 sec) Dimension = 48
Organizing shell pair data                  ... done (  0.0 sec)
Shell pair information
Total number of shell pairs                 ...      1176
Shell pairs after pre-screening             ...      1152
Total number of primitive shell pairs       ...      2330
Primitive shell pairs kept                  ...      2057
          la=0 lb=0:    354 shell pairs
          la=1 lb=0:    378 shell pairs
          la=1 lb=1:    105 shell pairs
          la=2 lb=0:    162 shell pairs
          la=2 lb=1:     84 shell pairs
          la=2 lb=2:     21 shell pairs
          la=3 lb=0:     27 shell pairs
          la=3 lb=1:     14 shell pairs
          la=3 lb=2:      6 shell pairs
          la=3 lb=3:      1 shell pairs

Calculating one electron integrals          ... done (  0.0 sec)
Calculating Nuclear repulsion               ... done (  0.0 sec) ENN=      9.621782736756 Eh

SHARK setup successfully completed in   0.2 seconds

Maximum memory used throughout the entire GTOINT-calculation: 14.7 MB

Diagonalization of the overlap matrix:
Smallest eigenvalue                        ... 2.214e-04
Time for diagonalization                   ...    0.004 sec
Threshold for overlap eigenvalues          ... 1.000e-08
Number of eigenvalues below threshold      ... 0
Time for construction of square roots      ...    0.002 sec
Total time needed                          ...    0.006 sec

-------------------
DFT GRID GENERATION
-------------------

General Integration Accuracy     IntAcc      ... 4.388
Radial Grid Type                 RadialGrid  ... OptM3 with GC (2021)
Angular Grid (max. ang.)         AngularGrid ... 4 (Lebedev-302)
Angular grid pruning method      GridPruning ... 4 (adaptive)
Weight generation scheme         WeightScheme... Becke
Basis function cutoff            BFCut       ... 1.0000e-11
Integration weight cutoff        WCut        ... 1.0000e-14
Angular grids for H and He will be reduced by one unit
Partially contracted basis set               ... off
Rotationally invariant grid construction     ... off

Total number of grid points                  ...    17039
Total number of batches                      ...      268
Average number of points per batch           ...       63
Average number of grid points per atom       ...     4260
Time for grid setup =    0.136 sec

--------------
SCF ITERATIONS
--------------
ITER       Energy         Delta-E        Max-DP      RMS-DP      [F,P]     Damp
               ***  Starting incremental Fock matrix formation  ***
  0    -39.7955445917   0.000000000000 0.00275885  0.00006921  0.0155973 0.7000
  1    -39.7959459220  -0.000401330213 0.00248636  0.00006390  0.0117139 0.7000
                               ***Turning on DIIS***
  2    -39.7962559983  -0.000310076310 0.00644760  0.00017061  0.0085875 0.0000
  3    -39.7970670984  -0.000811100119 0.00217612  0.00004232  0.0024911 0.0000
  4    -39.7971047832  -0.000037684788 0.00111166  0.00001922  0.0011840 0.0000
  5    -39.7971145842  -0.000009801077 0.00085905  0.00001638  0.0006072 0.0000
  6    -39.7971179193  -0.000003335034 0.00008562  0.00000126  0.0000738 0.0000
  7    -39.7971179679  -0.000000048656 0.00001388  0.00000028  0.0000235 0.0000
  8    -39.7971179711  -0.000000003124 0.00000471  0.00000009  0.0000033 0.0000
                 **** Energy Check signals convergence ****

               *****************************************************
               *                     SUCCESS                       *
               *           SCF CONVERGED AFTER   9 CYCLES          *
               *****************************************************

Total Energy       :          -39.79711797 Eh           -1082.93464 eV
  Last Energy change         ...   -1.0335e-10  Tolerance :   1.0000e-08
  Last MAX-Density change    ...    5.0451e-07  Tolerance :   1.0000e-07
             **** THE GBW FILE WAS UPDATED (C-H-H-H_radical_opt.gbw) ****
             **** DENSITY C-H-H-H_radical_opt.scfp WAS UPDATED ****
             **** ENERGY FILE WAS UPDATED (C-H-H-H_radical_opt.en.tmp) ****
----------------------
UHF SPIN CONTAMINATION
----------------------

Warning: in a DFT calculation there is little theoretical justification to 
         calculate <S**2> as in Hartree-Fock theory. We will do it anyways
         but you should keep in mind that the values have only limited relevance

Expectation value of <S**2>     :     0.753995
Ideal value S*(S+1) for S=0.5   :     0.750000
Deviation                       :     0.003995

             **** THE GBW FILE WAS UPDATED (C-H-H-H_radical_opt.gbw) ****
             **** DENSITY C-H-H-H_radical_opt.scfp WAS UPDATED ****
Total SCF time: 0 days 0 hours 0 min 7 sec 

Maximum memory used throughout the entire SCF-calculation: 234.4 MB

-------------------------   --------------------
FINAL SINGLE POINT ENERGY       -39.797117971162
-------------------------   --------------------

------------------------------------------------------------------------------
                         ORCA SCF GRADIENT CALCULATION
------------------------------------------------------------------------------

Gradient of the Kohn-Sham DFT energy:
Kohn-Sham wavefunction type      ... UKS
Hartree-Fock exchange scaling    ...    0.250
Number of operators              ...    2
Number of atoms                  ...    4
Basis set dimensions             ...  106
Integral neglect threshold       ... 2.5e-11
Integral primitive cutoff        ... 2.5e-12
SHARK Integral package           ... ON

Nuc. rep. gradient       (SHARK) ... done (  0.0 sec)
HCore & Overlap gradient (SHARK) ... done (  0.0 sec)
Two-Electron gradient    (SHARK) ... done (  2.0 sec)
Exchange-correlation gradient    ... done

------------------
CARTESIAN GRADIENT
------------------

   1   C   :   -0.000739364    0.000184104    0.019982195
   2   H   :    0.001124597   -0.000284442   -0.006743971
   3   H   :   -0.000497356   -0.001351354   -0.006621978
   4   H   :    0.000112123    0.001451692   -0.006616246

Difference to translation invariance:
           :    0.0000000000    0.0000000000   -0.0000000000

Difference to rotation invariance:
           :   -0.0000000041    0.0000023056    0.0000032393

Norm of the cartesian gradient     ...    0.0232059096
RMS gradient                       ...    0.0066989691
MAX gradient                       ...    0.0199821949

-------
TIMINGS
-------

Total SCF gradient time            ...        2.668 sec

One electron gradient       ....       0.033 sec  (  1.3%)
Two electron gradient       ....       1.954 sec  ( 73.2%)
XC gradient                 ....       0.601 sec  ( 22.5%)

Maximum memory used throughout the entire SCFGRAD-calculation: 34.9 MB
------------------------------------------------------------------------------
                         ORCA GEOMETRY RELAXATION STEP
------------------------------------------------------------------------------

Reading the OPT-File                    .... done
Getting information on internals        .... done
Copying old internal coords+grads       .... done
Making the new internal coordinates     .... (new redundants).... done
Validating the new internal coordinates .... (new redundants).... done
Calculating the B-matrix                .... done
Calculating the G,G- and P matrices     .... done
Transforming gradient to internals      .... done
Projecting the internal gradient        .... done
Number of atoms                         ....   4
Number of internal coordinates          ....   7
Current Energy                          ....   -39.797117971 Eh
Current gradient norm                   ....     0.023205910 Eh/bohr
Maximum allowed component of the step   ....  0.300
Current trust radius                    ....  0.300
Updating the Hessian (BFGS)             .... done
Forming the augmented Hessian           .... done
Diagonalizing the augmented Hessian     .... done
Last element of RFO vector              ....  0.960244376
Lowest eigenvalues of augmented Hessian:
 -0.003800330  0.044158772  0.282946306  0.286068620  0.339356584
Length of the computed step             ....  0.290718469
The final length of the internal step   ....  0.290718469
Converting the step to cartesian space:
 Initial RMS(Int)=    0.1098812529
Transforming coordinates:
 Iter   0:  RMS(Cart)=    0.0412969787 RMS(Int)=    0.0902040538
 Iter   1:  RMS(Cart)=    0.0088264520 RMS(Int)=    0.0197142576
 Iter   2:  RMS(Cart)=    0.0015209889 RMS(Int)=    0.0020294038
 Iter   3:  RMS(Cart)=    0.0001017041 RMS(Int)=    0.0002036963
 Iter   4:  RMS(Cart)=    0.0000169481 RMS(Int)=    0.0000232410
 Iter   5:  RMS(Cart)=    0.0000012372 RMS(Int)=    0.0000022854
 Iter   6:  RMS(Cart)=    0.0000001799 RMS(Int)=    0.0000002573
 Iter   7:  RMS(Cart)=    0.0000000153 RMS(Int)=    0.0000000258
done
Storing new coordinates                 .... done

                                .--------------------.
          ----------------------|Geometry convergence|-------------------------
          Item                value                   Tolerance       Converged
          ---------------------------------------------------------------------
          Energy change      -0.0051492028            0.0000050000      NO
          RMS gradient        0.0051983850            0.0001000000      NO
          MAX gradient        0.0115646381            0.0003000000      NO
          RMS step            0.1098812529            0.0020000000      NO
          MAX step            0.2561083452            0.0040000000      NO
          ........................................................
          Max(Bonds)      0.0093      Max(Angles)    4.57
          Max(Dihed)        0.00      Max(Improp)   14.67
          ---------------------------------------------------------------------

The optimization has not yet converged - more geometry cycles are needed


    ---------------------------------------------------------------------------
                         Redundant Internal Coordinates
                            (Angstroem and degrees)

        Definition                    Value    dE/dq     Step     New-Value
    ----------------------------------------------------------------------------
     1. B(H   1,C   0)                1.0875  0.002580 -0.0084    1.0791   
     2. B(H   2,C   0)                1.0874  0.002717 -0.0090    1.0785   
     3. B(H   3,C   0)                1.0875  0.002736 -0.0093    1.0782   
     4. A(H   1,C   0,H   3)          115.36 -0.002076    4.55    119.91   
     5. A(H   2,C   0,H   3)          115.98 -0.005000    4.21    120.19   
     6. A(H   1,C   0,H   2)          115.32 -0.002141    4.57    119.89   
     7. I(H   1,H   3,H   2,C   0)    -36.16 -0.011565   14.67    -21.49   
    ----------------------------------------------------------------------------

         *************************************************************
         *                GEOMETRY OPTIMIZATION CYCLE   3            *
         *************************************************************
---------------------------------
CARTESIAN COORDINATES (ANGSTROEM)
---------------------------------
  C     -0.001899    0.000238    0.096409
  H      1.041978   -0.240688   -0.033011
  H     -0.729016   -0.785785   -0.032301
  H     -0.311063    1.025235   -0.031096

----------------------------
CARTESIAN COORDINATES (A.U.)
----------------------------
  NO LB      ZA    FRAG     MASS         X           Y           Z
   0 C     6.0000    0    12.011   -0.003589    0.000449    0.182186
   1 H     1.0000    0     1.008    1.969053   -0.454835   -0.062382
   2 H     1.0000    0     1.008   -1.377641   -1.484918   -0.061041
   3 H     1.0000    0     1.008   -0.587824    1.937413   -0.058763

--------------------------------
INTERNAL COORDINATES (ANGSTROEM)
--------------------------------
 C      0   0   0     0.000000000000     0.00000000     0.00000000
 H      1   0   0     1.079108126623     0.00000000     0.00000000
 H      1   2   0     1.078469544275   118.37008685     0.00000000
 H      1   2   3     1.078173781598   118.38899165   203.22305873

---------------------------
INTERNAL COORDINATES (A.U.)
---------------------------
 C      0   0   0     0.000000000000     0.00000000     0.00000000
 H      1   0   0     2.039218828207     0.00000000     0.00000000
 H      1   2   0     2.038012082454   118.37008685     0.00000000
 H      1   2   3     2.037453171994   118.38899165   203.22305873

------------------------------------------------------------------------------
                   ___                                                        
                  /   \      - P O W E R E D   B Y -                         
                 /     \                                                     
                 |  |  |   _    _      __       _____    __    __             
                 |  |  |  | |  | |    /  \     |  _  \  |  |  /  |          
                  \  \/   | |  | |   /    \    | | | |  |  | /  /          
                 / \  \   | |__| |  /  /\  \   | |_| |  |  |/  /          
                |  |  |   |  __  | /  /__\  \  |    /   |      \           
                |  |  |   | |  | | |   __   |  |    \   |  |\   \          
                \     /   | |  | | |  |  |  |  | |\  \  |  | \   \       
                 \___/    |_|  |_| |__|  |__|  |_| \__\ |__|  \__/        
                                                                              
                      - O R C A' S   B I G   F R I E N D -                    
                                      &                                       
                       - I N T E G R A L  F E E D E R -                       
                                                                              
 v1 FN, 2020, v2 2021                                                         
------------------------------------------------------------------------------


Reading SHARK input file C-H-H-H_radical_opt.SHARKINP.tmp ... ok
----------------------
SHARK INTEGRAL PACKAGE
----------------------

Number of atoms                             ...      4
Number of basis functions                   ...    106
Number of shells                            ...     48
Maximum angular momentum                    ...      3
Integral batch strategy                     ... SHARK/LIBINT Hybrid
RI-J (if used) integral strategy            ... SPLIT-RIJ (Revised 2003 algorithm where possible)
Printlevel                                  ...      1
Contraction scheme used                     ... SEGMENTED contraction
Coulomb Range Separation                    ... NOT USED
Exchange Range Separation                   ... NOT USED
Finite Nucleus Model                        ... NOT USED
Auxiliary Coulomb fitting basis             ... NOT available
Auxiliary J/K fitting basis                 ... NOT available
Auxiliary Correlation fitting basis         ... NOT available
Auxiliary 'external' fitting basis          ... NOT available
Integral threshold                          ...     2.500000e-11
Primitive cut-off                           ...     2.500000e-12
Primitive pair pre-selection threshold      ...     2.500000e-12

Calculating pre-screening integrals         ... done (  0.0 sec) Dimension = 48
Organizing shell pair data                  ... done (  0.0 sec)
Shell pair information
Total number of shell pairs                 ...      1176
Shell pairs after pre-screening             ...      1152
Total number of primitive shell pairs       ...      2330
Primitive shell pairs kept                  ...      2057
          la=0 lb=0:    354 shell pairs
          la=1 lb=0:    378 shell pairs
          la=1 lb=1:    105 shell pairs
          la=2 lb=0:    162 shell pairs
          la=2 lb=1:     84 shell pairs
          la=2 lb=2:     21 shell pairs
          la=3 lb=0:     27 shell pairs
          la=3 lb=1:     14 shell pairs
          la=3 lb=2:      6 shell pairs
          la=3 lb=3:      1 shell pairs

Calculating one electron integrals          ... done (  0.0 sec)
Calculating Nuclear repulsion               ... done (  0.0 sec) ENN=      9.687089356803 Eh

SHARK setup successfully completed in   0.2 seconds

Maximum memory used throughout the entire GTOINT-calculation: 14.7 MB

Diagonalization of the overlap matrix:
Smallest eigenvalue                        ... 2.115e-04
Time for diagonalization                   ...    0.004 sec
Threshold for overlap eigenvalues          ... 1.000e-08
Number of eigenvalues below threshold      ... 0
Time for construction of square roots      ...    0.003 sec
Total time needed                          ...    0.007 sec

-------------------
DFT GRID GENERATION
-------------------

General Integration Accuracy     IntAcc      ... 4.388
Radial Grid Type                 RadialGrid  ... OptM3 with GC (2021)
Angular Grid (max. ang.)         AngularGrid ... 4 (Lebedev-302)
Angular grid pruning method      GridPruning ... 4 (adaptive)
Weight generation scheme         WeightScheme... Becke
Basis function cutoff            BFCut       ... 1.0000e-11
Integration weight cutoff        WCut        ... 1.0000e-14
Angular grids for H and He will be reduced by one unit
Partially contracted basis set               ... off
Rotationally invariant grid construction     ... off

Total number of grid points                  ...    17049
Total number of batches                      ...      269
Average number of points per batch           ...       63
Average number of grid points per atom       ...     4262
Time for grid setup =    0.138 sec

--------------
SCF ITERATIONS
--------------
ITER       Energy         Delta-E        Max-DP      RMS-DP      [F,P]     Damp
               ***  Starting incremental Fock matrix formation  ***
  0    -39.7975416832   0.000000000000 0.00268170  0.00007323  0.0195689 0.7000
  1    -39.7980571467  -0.000515463507 0.00279239  0.00006943  0.0147507 0.7000
                               ***Turning on DIIS***
  2    -39.7984686211  -0.000411474405 0.00837883  0.00018847  0.0108541 0.0000
  3    -39.7995816085  -0.001112987457 0.00301246  0.00005036  0.0033984 0.0000
  4    -39.7996407143  -0.000059105798 0.00153283  0.00002513  0.0015357 0.0000
  5    -39.7996555910  -0.000014876681 0.00098638  0.00001875  0.0006506 0.0000
  6    -39.7996602491  -0.000004658121 0.00008595  0.00000198  0.0001559 0.0000
  7    -39.7996603967  -0.000000147580 0.00002050  0.00000052  0.0000397 0.0000
  8    -39.7996604090  -0.000000012280 0.00000674  0.00000011  0.0000042 0.0000
                 **** Energy Check signals convergence ****

               *****************************************************
               *                     SUCCESS                       *
               *           SCF CONVERGED AFTER   9 CYCLES          *
               *****************************************************

Total Energy       :          -39.79966041 Eh           -1083.00382 eV
  Last Energy change         ...   -1.5341e-10  Tolerance :   1.0000e-08
  Last MAX-Density change    ...    9.5078e-07  Tolerance :   1.0000e-07
             **** THE GBW FILE WAS UPDATED (C-H-H-H_radical_opt.gbw) ****
             **** DENSITY C-H-H-H_radical_opt.scfp WAS UPDATED ****
             **** ENERGY FILE WAS UPDATED (C-H-H-H_radical_opt.en.tmp) ****
----------------------
UHF SPIN CONTAMINATION
----------------------

Warning: in a DFT calculation there is little theoretical justification to 
         calculate <S**2> as in Hartree-Fock theory. We will do it anyways
         but you should keep in mind that the values have only limited relevance

Expectation value of <S**2>     :     0.754366
Ideal value S*(S+1) for S=0.5   :     0.750000
Deviation                       :     0.004366

             **** THE GBW FILE WAS UPDATED (C-H-H-H_radical_opt.gbw) ****
             **** DENSITY C-H-H-H_radical_opt.scfp WAS UPDATED ****
Total SCF time: 0 days 0 hours 0 min 7 sec 

Maximum memory used throughout the entire SCF-calculation: 234.4 MB

-------------------------   --------------------
FINAL SINGLE POINT ENERGY       -39.799660409150
-------------------------   --------------------

------------------------------------------------------------------------------
                         ORCA SCF GRADIENT CALCULATION
------------------------------------------------------------------------------

Gradient of the Kohn-Sham DFT energy:
Kohn-Sham wavefunction type      ... UKS
Hartree-Fock exchange scaling    ...    0.250
Number of operators              ...    2
Number of atoms                  ...    4
Basis set dimensions             ...  106
Integral neglect threshold       ... 2.5e-11
Integral primitive cutoff        ... 2.5e-12
SHARK Integral package           ... ON

Nuc. rep. gradient       (SHARK) ... done (  0.0 sec)
HCore & Overlap gradient (SHARK) ... done (  0.0 sec)
Two-Electron gradient    (SHARK) ... done (  2.0 sec)
Exchange-correlation gradient    ... done

------------------
CARTESIAN GRADIENT
------------------

   1   C   :   -0.001175276    0.000461275    0.007181511
   2   H   :   -0.001494935    0.000337397   -0.002482199
   3   H   :    0.001598829    0.000945058   -0.002361415
   4   H   :    0.001071382   -0.001743731   -0.002337897

Difference to translation invariance:
           :   -0.0000000000   -0.0000000000   -0.0000000000

Difference to rotation invariance:
           :    0.0000014828    0.0000044892    0.0000047528

Norm of the cartesian gradient     ...    0.0089642628
RMS gradient                       ...    0.0025877598
MAX gradient                       ...    0.0071815106

-------
TIMINGS
-------

Total SCF gradient time            ...        2.667 sec

One electron gradient       ....       0.032 sec  (  1.2%)
Two electron gradient       ....       1.980 sec  ( 74.2%)
XC gradient                 ....       0.574 sec  ( 21.5%)

Maximum memory used throughout the entire SCFGRAD-calculation: 34.9 MB
------------------------------------------------------------------------------
                         ORCA GEOMETRY RELAXATION STEP
------------------------------------------------------------------------------

Reading the OPT-File                    .... done
Getting information on internals        .... done
Copying old internal coords+grads       .... done
Making the new internal coordinates     .... (new redundants).... done
Validating the new internal coordinates .... (new redundants).... done
Calculating the B-matrix                .... done
Calculating the G,G- and P matrices     .... done
Transforming gradient to internals      .... done
Projecting the internal gradient        .... done
Number of atoms                         ....   4
Number of internal coordinates          ....   7
Current Energy                          ....   -39.799660409 Eh
Current gradient norm                   ....     0.008964263 Eh/bohr
Maximum allowed component of the step   ....  0.300
Current trust radius                    ....  0.300
Updating the Hessian (BFGS)             .... done
Forming the augmented Hessian           .... done
Diagonalizing the augmented Hessian     .... done
Last element of RFO vector              ....  0.982637002
Lowest eigenvalues of augmented Hessian:
 -0.000987837  0.027168298  0.284827332  0.286076207  0.339355063
Length of the computed step             ....  0.188816893
The final length of the internal step   ....  0.188816893
Converting the step to cartesian space:
 Initial RMS(Int)=    0.0713660776
Transforming coordinates:
 Iter   0:  RMS(Cart)=    0.0323438950 RMS(Int)=    0.0708086217
 Iter   1:  RMS(Cart)=    0.0019337027 RMS(Int)=    0.0026081079
 Iter   2:  RMS(Cart)=    0.0000779858 RMS(Int)=    0.0001529686
 Iter   3:  RMS(Cart)=    0.0000080321 RMS(Int)=    0.0000114187
 Iter   4:  RMS(Cart)=    0.0000003960 RMS(Int)=    0.0000006747
 Iter   5:  RMS(Cart)=    0.0000000321 RMS(Int)=    0.0000000493
done
Storing new coordinates                 .... done

                                .--------------------.
          ----------------------|Geometry convergence|-------------------------
          Item                value                   Tolerance       Converged
          ---------------------------------------------------------------------
          Energy change      -0.0025424380            0.0000050000      NO
          RMS gradient        0.0022077470            0.0001000000      NO
[...]

 -----------------------------------------------------------
 Nucleus   0C : A:ISTP=   13 I=  0.5 P=134.1903 MHz/au**3
                Q:ISTP=   13 I=  0.5 Q=  0.0000 barn     
 -----------------------------------------------------------
 Solving for nuclear perturbation:
Forming RHS of the CP-SCF equations         ... 
Calc. nucleus orbit integrals (SHARK)       ... done

------------------------------------------------------------------------------
                           ORCA CP-SCF CALCULATION
------------------------------------------------------------------------------

Input orbitals are from        ... C-H-H-H_radical_EPR.gbw
Input Perturbation             ... C-H-H-H_radical_EPR.pin.tmp
Wavefunction output            ... C-H-H-H_radical_EPR.pout.tmp
Perturbation mode              ... Imaginary perturbation
Solver                         ... POPLE
Max. number of iterations      ... 64
Convergence tolerance          ... 1.000e-03
Integral handling              ... Direct
DFT GridXC                     ... 1
Number of perturbations        ... 3
Number of operators            ... 2
Orbital ranges used for CP-SCF:
 Operator 0:  Orbitals   0...  4  to   5...105
 Operator 1:  Orbitals   0...  3  to   4...105
Variables per perturbation     ... 913
DFT calculation                         ... on
XC functional terms                     ... off
Hybrid DFT                              ... on
   Exchange mixing (SCF)                ...  0.250
   Exchange mixing (CP-SCF)             ...  0.250
   GGA exch. scaling(SCF)               ...  0.750
   GGA exch. scaling (CP-SCF)           ...  0.750
   GGA corr. scaling (SCF)              ...  1.000
   GGA corr. scaling (CP-SCF)           ...  1.000

CP-SCF GRID
-----------

General Integration Accuracy     IntAcc      ... 3.467
Radial Grid Type                 RadialGrid  ... OptM3 with GC (2021)
Angular Grid (max. ang.)         AngularGrid ... 1 (Lebedev-50)
Angular grid pruning method      GridPruning ... 4 (adaptive)
Weight generation scheme         WeightScheme... Becke
Basis function cutoff            BFCut       ... 1.0000e-11
Integration weight cutoff        WCut        ... 1.0000e-14
Angular grids for H and He will be reduced by one unit
Partially contracted basis set               ... off
Rotationally invariant grid construction     ... off

Total number of grid points                  ...     2334
Total number of batches                      ...       39
Average number of points per batch           ...       59
Average number of grid points per atom       ...      584

Memory available               ... 954.6 MB
Memory needed per perturbation ...   1.2 MB
Perturbations treated per batch... 3
Number of batches              ... 1
     CP-SCF ITERATION   0:   1.1284e+00 (   1.2 sec   0/  3 done)
     CP-SCF ITERATION   1:   4.8999e-02 (   1.1 sec   0/  3 done)
     CP-SCF ITERATION   2:   4.3466e-03 (   1.1 sec   1/  3 done)
     CP-SCF ITERATION   3:   2.1533e-04 (   1.0 sec   3/  3 done)
                    *** THE CP-SCF HAS CONVERGED ***

Forming final perturbed densities           ... done
Transforming perturbed density to AO basis  ... done

 Raw HFC matrix (all values in MHz): 
 -----------------------------------
                 3.7172               0.0007               0.1486
                 0.0007               3.7210              -0.1891
                 0.1486              -0.1891             237.1065

 A(FC)          81.6402              81.6402              81.6402
 A(SD)         -77.7414             -77.7373             155.4787
 A(ORB+DIA)     -0.1819              -0.1820              -0.0122    A(PC) =  -0.1253
 A(ORB)         -0.1823              -0.1824              -0.0121    A(PC) =  -0.1256
 A(DIA)          0.0004               0.0004              -0.0001    A(PC) =   0.0002
             ----------           ----------           ----------
 A(Tot)          3.7169               3.7210             237.1068    A(iso)=   81.5149
 Orientation: 
  X          -0.9770365           -0.2130708            0.0006367
  Y           0.2130703           -0.9770365           -0.0008104
  Z           0.0007948           -0.0006562            0.9999995

Notes:  (1) The A matrix conforms to the "SAI" spin Hamiltonian convention.
        (2) Tensor is right-handed.

 -----------------------------------------------------------
 Nucleus   1H : A:ISTP=    1 I=  0.5 P=533.5514 MHz/au**3
                Q:ISTP=    2 I=  1.0 Q=  0.0029 barn     
 -----------------------------------------------------------
 Solving for nuclear perturbation:
Forming RHS of the CP-SCF equations         ... 
Calc. nucleus orbit integrals (SHARK)       ... done

------------------------------------------------------------------------------
                           ORCA CP-SCF CALCULATION
------------------------------------------------------------------------------

Input orbitals are from        ... C-H-H-H_radical_EPR.gbw
Input Perturbation             ... C-H-H-H_radical_EPR.pin.tmp
Wavefunction output            ... C-H-H-H_radical_EPR.pout.tmp
Perturbation mode              ... Imaginary perturbation
Solver                         ... POPLE
Max. number of iterations      ... 64
Convergence tolerance          ... 1.000e-03
Integral handling              ... Direct
DFT GridXC                     ... 1
Number of perturbations        ... 3
Number of operators            ... 2
Orbital ranges used for CP-SCF:
 Operator 0:  Orbitals   0...  4  to   5...105
 Operator 1:  Orbitals   0...  3  to   4...105
Variables per perturbation     ... 913
DFT calculation                         ... on
XC functional terms                     ... off
Hybrid DFT                              ... on
   Exchange mixing (SCF)                ...  0.250
   Exchange mixing (CP-SCF)             ...  0.250
   GGA exch. scaling(SCF)               ...  0.750
   GGA exch. scaling (CP-SCF)           ...  0.750
   GGA corr. scaling (SCF)              ...  1.000
   GGA corr. scaling (CP-SCF)           ...  1.000

CP-SCF GRID
-----------

General Integration Accuracy     IntAcc      ... 3.467
Radial Grid Type                 RadialGrid  ... OptM3 with GC (2021)
Angular Grid (max. ang.)         AngularGrid ... 1 (Lebedev-50)
Angular grid pruning method      GridPruning ... 4 (adaptive)
Weight generation scheme         WeightScheme... Becke
Basis function cutoff            BFCut       ... 1.0000e-11
Integration weight cutoff        WCut        ... 1.0000e-14
Angular grids for H and He will be reduced by one unit
Partially contracted basis set               ... off
Rotationally invariant grid construction     ... off

Total number of grid points                  ...     2334
Total number of batches                      ...       39
Average number of points per batch           ...       59
Average number of grid points per atom       ...      584

Memory available               ... 954.5 MB
Memory needed per perturbation ...   1.2 MB
Perturbations treated per batch... 3
Number of batches              ... 1
     CP-SCF ITERATION   0:   7.2180e-02 (   1.2 sec   0/  3 done)
     CP-SCF ITERATION   1:   3.1640e-03 (   1.1 sec   1/  3 done)
     CP-SCF ITERATION   2:   2.5984e-04 (   0.9 sec   3/  3 done)
                    *** THE CP-SCF HAS CONVERGED ***

Forming final perturbed densities           ... done
Transforming perturbed density to AO basis  ... done

 Raw HFC matrix (all values in MHz): 
 -----------------------------------
               -38.8678             -17.2320              -0.0369
               -17.2320            -109.5696              -0.0206
                -0.0369              -0.0206             -69.7279

 A(FC)         -72.7353             -72.7353             -72.7353
 A(SD)          37.8333               3.0080             -40.8413
 A(ORB+DIA)      0.0105              -0.0006               0.0307    A(PC) =   0.0135
 A(ORB)          0.0056               0.0005               0.0292    A(PC) =   0.0118
 A(DIA)          0.0049              -0.0011               0.0015    A(PC) =   0.0018
             ----------           ----------           ----------
 A(Tot)        -34.8915             -69.7279            -113.5459    A(iso)=  -72.7218
 Orientation: 
  X           0.9743949           -0.0007298            0.2248422
  Y          -0.2248415            0.0008319            0.9743950
  Z          -0.0008982           -0.9999994            0.0006465

Notes:  (1) The A matrix conforms to the "SAI" spin Hamiltonian convention.
        (2) Tensor is right-handed.

 -----------------------------------------------------------
 Nucleus   2H : A:ISTP=    1 I=  0.5 P=533.5514 MHz/au**3
                Q:ISTP=    2 I=  1.0 Q=  0.0029 barn     
 -----------------------------------------------------------
 Solving for nuclear perturbation:
Forming RHS of the CP-SCF equations         ... 
Calc. nucleus orbit integrals (SHARK)       ... done

------------------------------------------------------------------------------
                           ORCA CP-SCF CALCULATION
------------------------------------------------------------------------------

Input orbitals are from        ... C-H-H-H_radical_EPR.gbw
Input Perturbation             ... C-H-H-H_radical_EPR.pin.tmp
Wavefunction output            ... C-H-H-H_radical_EPR.pout.tmp
Perturbation mode              ... Imaginary perturbation
Solver                         ... POPLE
Max. number of iterations      ... 64
Convergence tolerance          ... 1.000e-03
Integral handling              ... Direct
DFT GridXC                     ... 1
Number of perturbations        ... 3
Number of operators            ... 2
Orbital ranges used for CP-SCF:
 Operator 0:  Orbitals   0...  4  to   5...105
 Operator 1:  Orbitals   0...  3  to   4...105
Variables per perturbation     ... 913
DFT calculation                         ... on
XC functional terms                     ... off
Hybrid DFT                              ... on
   Exchange mixing (SCF)                ...  0.250
   Exchange mixing (CP-SCF)             ...  0.250
   GGA exch. scaling(SCF)               ...  0.750
   GGA exch. scaling (CP-SCF)           ...  0.750
   GGA corr. scaling (SCF)              ...  1.000
   GGA corr. scaling (CP-SCF)           ...  1.000

CP-SCF GRID
-----------

General Integration Accuracy     IntAcc      ... 3.467
Radial Grid Type                 RadialGrid  ... OptM3 with GC (2021)
Angular Grid (max. ang.)         AngularGrid ... 1 (Lebedev-50)
Angular grid pruning method      GridPruning ... 4 (adaptive)
Weight generation scheme         WeightScheme... Becke
Basis function cutoff            BFCut       ... 1.0000e-11
Integration weight cutoff        WCut        ... 1.0000e-14
Angular grids for H and He will be reduced by one unit
Partially contracted basis set               ... off
Rotationally invariant grid construction     ... off

Total number of grid points                  ...     2334
Total number of batches                      ...       39
Average number of points per batch           ...       59
Average number of grid points per atom       ...      584

Memory available               ... 954.5 MB
Memory needed per perturbation ...   1.2 MB
Perturbations treated per batch... 3
Number of batches              ... 1
     CP-SCF ITERATION   0:   6.8660e-02 (   1.1 sec   0/  3 done)
     CP-SCF ITERATION   1:   3.2519e-03 (   1.1 sec   1/  3 done)
     CP-SCF ITERATION   2:   3.2460e-04 (   0.9 sec   3/  3 done)
                    *** THE CP-SCF HAS CONVERGED ***

Forming final perturbed densities           ... done
Transforming perturbed density to AO basis  ... done

 Raw HFC matrix (all values in MHz): 
 -----------------------------------
               -76.9210              39.2313               0.0387
                39.2313             -71.4813              -0.0240
                 0.0387              -0.0240             -69.7130

 A(FC)         -72.7186             -72.7186             -72.7186
 A(SD)          37.8325               3.0063             -40.8387
 A(ORB+DIA)      0.0105              -0.0006               0.0306    A(PC) =   0.0135
 A(ORB)          0.0056               0.0005               0.0292    A(PC) =   0.0117
 A(DIA)          0.0049              -0.0011               0.0015    A(PC) =   0.0018
             ----------           ----------           ----------
 A(Tot)        -34.8757             -69.7130            -113.5267    A(iso)=  -72.7051
 Orientation: 
  X           0.6822162           -0.0005715           -0.7311503
  Y           0.7311505            0.0008803            0.6822157
  Z           0.0002537           -0.9999994            0.0010185

Notes:  (1) The A matrix conforms to the "SAI" spin Hamiltonian convention.
        (2) Tensor is right-handed.

 -----------------------------------------------------------
 Nucleus   3H : A:ISTP=    1 I=  0.5 P=533.5514 MHz/au**3
                Q:ISTP=    2 I=  1.0 Q=  0.0029 barn     
 -----------------------------------------------------------
 Solving for nuclear perturbation:
Forming RHS of the CP-SCF equations         ... 
Calc. nucleus orbit integrals (SHARK)       ... done

------------------------------------------------------------------------------
                           ORCA CP-SCF CALCULATION
------------------------------------------------------------------------------

Input orbitals are from        ... C-H-H-H_radical_EPR.gbw
Input Perturbation             ... C-H-H-H_radical_EPR.pin.tmp
Wavefunction output            ... C-H-H-H_radical_EPR.pout.tmp
Perturbation mode              ... Imaginary perturbation
Solver                         ... POPLE
Max. number of iterations      ... 64
Convergence tolerance          ... 1.000e-03
Integral handling              ... Direct
DFT GridXC                     ... 1
Number of perturbations        ... 3
Number of operators            ... 2
Orbital ranges used for CP-SCF:
 Operator 0:  Orbitals   0...  4  to   5...105
 Operator 1:  Orbitals   0...  3  to   4...105
Variables per perturbation     ... 913
DFT calculation                         ... on
XC functional terms                     ... off
Hybrid DFT                              ... on
   Exchange mixing (SCF)                ...  0.250
   Exchange mixing (CP-SCF)             ...  0.250
   GGA exch. scaling(SCF)               ...  0.750
   GGA exch. scaling (CP-SCF)           ...  0.750
   GGA corr. scaling (SCF)              ...  1.000
   GGA corr. scaling (CP-SCF)           ...  1.000

CP-SCF GRID
-----------

General Integration Accuracy     IntAcc      ... 3.467
Radial Grid Type                 RadialGrid  ... OptM3 with GC (2021)
Angular Grid (max. ang.)         AngularGrid ... 1 (Lebedev-50)
Angular grid pruning method      GridPruning ... 4 (adaptive)
Weight generation scheme         WeightScheme... Becke
Basis function cutoff            BFCut       ... 1.0000e-11
Integration weight cutoff        WCut        ... 1.0000e-14
Angular grids for H and He will be reduced by one unit
Partially contracted basis set               ... off
Rotationally invariant grid construction     ... off

Total number of grid points                  ...     2334
Total number of batches                      ...       39
Average number of points per batch           ...       59
Average number of grid points per atom       ...      584

Memory available               ... 954.5 MB
Memory needed per perturbation ...   1.2 MB
Perturbations treated per batch... 3
Number of batches              ... 1
     CP-SCF ITERATION   0:   7.1859e-02 (   1.1 sec   0/  3 done)
     CP-SCF ITERATION   1:   3.1854e-03 (   1.1 sec   1/  3 done)
     CP-SCF ITERATION   2:   2.7307e-04 (   0.9 sec   3/  3 done)
                    *** THE CP-SCF HAS CONVERGED ***

Forming final perturbed densities           ... done
Transforming perturbed density to AO basis  ... done

 Raw HFC matrix (all values in MHz): 
 -----------------------------------
              -106.7813             -22.0229               0.0067
               -22.0229             -41.6200               0.0336
                 0.0067               0.0336             -69.7122

 A(FC)         -72.7180             -72.7180             -72.7180
 A(SD)          37.8325               3.0064             -40.8389
 A(ORB+DIA)      0.0105              -0.0006               0.0307    A(PC) =   0.0135
 A(ORB)          0.0056               0.0005               0.0292    A(PC) =   0.0118
 A(DIA)          0.0049              -0.0011               0.0015    A(PC) =   0.0018
             ----------           ----------           ----------
 A(Tot)        -34.8750             -69.7122            -113.5263    A(iso)=  -72.7045
 Orientation: 
  X          -0.2928447            0.0006088            0.9561598
  Y           0.9561596           -0.0007190            0.2928451
  Z           0.0008658            0.9999996           -0.0003715

Notes:  (1) The A matrix conforms to the "SAI" spin Hamiltonian convention.
        (2) Tensor is right-handed.


--------------------------------------------------------------------------------
----------------------------------------------------------------------------
                           ORCA EULER ANGLE PROGRAM
----------------------------------------------------------------------------

Only g-tensor available        -->  using g-tensor as reference tensor

Reference tensor               ...  g

g-tensor ordering              ...  |g_min> --> |gx>
                                    |g_mid> --> |gy>
                                    |g_max> --> |gz>

A- and EFG-tensor ordering     ...  the axes |Ax>, |Qx>, |Ay>, etc. are assigned
                                    such that the Euler rotation is minimal. You
                                    can find the respective eigenvalues as Ax,
                                    EFGx, Ay, etc. in the tables below.
                                    The relation of |Ax>, |Ay>,  etc. to Amin, Amid, etc.
                                    (as printed in the ORCA EPR/NMR CALCULATION Output)
                                    is obtained in the detailed printout.

Euler rotation around          ...  z - y - z
   First rotation              -->  by alpha around z
   Second rotation             -->  by beta around y'
   Third rotation              -->  by gamma around z''
   Positive / Negative angle   -->  clockwise / counterclockwise rotation

Plot EFG-tensors                    (-)
Plot HFC-tensors                    (-)
Detailed Printout                   (-)

-------------------------------------------------------------------------
          Euler rotation of hyperfine tensor to g-tensor
-------------------------------------------------------------------------

-------------------------------------------------------------------
 Atom  |   Alpha    Beta    Gamma   |   Ax       Ay       Az 
       |          [degrees]         |           [MHz]         
-------------------------------------------------------------------
  0C      -89.8      0.2     89.8     237.11     3.72     3.72
  1H      -89.6      0.9     89.6     -69.73  -113.55   -34.89
  2H      -90.0     30.9     90.0     -69.71   -34.88  -113.53
  3H       90.0     29.1    -90.0     -69.71   -34.88  -113.53
-------------------------------------------------------------------


Maximum memory used throughout the entire EPRNMR-calculation: 81.2 MB

Timings for individual modules:

Sum of individual times         ...       39.395 sec (=   0.657 min)
GTO integral calculation        ...        0.230 sec (=   0.004 min)   0.6 %
Spin-Orbit-Coupling Matrices    ...        6.517 sec (=   0.109 min)  16.5 %
SCF iterations                  ...        1.794 sec (=   0.030 min)   4.6 %
EPR/NMR calculation             ...       30.853 sec (=   0.514 min)  78.3 %



                             ****ORCA TERMINATED NORMALLY****
TOTAL RUN TIME: 0 days 0 hours 1 minutes 54 seconds 31 msec

slurmID:    30883863
totalRuntime[s]:    114.197291985
