
                                 *****************
                                 * O   R   C   A *
                                 *****************

                                            #,                                       
                                            ###                                      
                                            ####                                     
                                            #####                                    
                                            ######                                   
                                           ########,                                 
                                     ,,################,,,,,                         
                               ,,#################################,,                 
                          ,,##########################################,,             
                       ,#########################################, ''#####,          
                    ,#############################################,,   '####,        
                  ,##################################################,,,,####,       
                ,###########''''           ''''###############################       
              ,#####''   ,,,,##########,,,,          '''####'''          '####       
            ,##' ,,,,###########################,,,                        '##       
           ' ,,###''''                  '''############,,,                           
         ,,##''                                '''############,,,,        ,,,,,,###''
      ,#''                                            '''#######################'''  
     '                                                          ''''####''''         
             ,#######,   #######,   ,#######,      ##                                
            ,#'     '#,  ##    ##  ,#'     '#,    #''#        ######   ,####,        
            ##       ##  ##   ,#'  ##            #'  '#       #        #'  '#        
            ##       ##  #######   ##           ,######,      #####,   #    #        
            '#,     ,#'  ##    ##  '#,     ,#' ,#      #,         ##   #,  ,#        
             '#######'   ##     ##  '#######'  #'      '#     #####' # '####'        



                  #######################################################
                  #                        -***-                        #
                  #          Department of theory and spectroscopy      #
                  #    Directorship and core code : Frank Neese         #
                  #        Max Planck Institute fuer Kohlenforschung    #
                  #                Kaiser Wilhelm Platz 1               #
                  #                 D-45470 Muelheim/Ruhr               #
                  #                      Germany                        #
                  #                                                     #
                  #                  All rights reserved                #
                  #                        -***-                        #
                  #######################################################


                         Program Version 5.0.4 -  RELEASE  -


 With contributions from (in alphabetic order):
   Daniel Aravena         : Magnetic Suceptibility
   Michael Atanasov       : Ab Initio Ligand Field Theory (pilot matlab implementation)
   Alexander A. Auer      : GIAO ZORA, VPT2 properties, NMR spectrum
   Ute Becker             : Parallelization
   Giovanni Bistoni       : ED, misc. LED, open-shell LED, HFLD
   Martin Brehm           : Molecular dynamics
   Dmytro Bykov           : SCF Hessian
   Vijay G. Chilkuri      : MRCI spin determinant printing, contributions to CSF-ICE
   Dipayan Datta          : RHF DLPNO-CCSD density
   Achintya Kumar Dutta   : EOM-CC, STEOM-CC
   Dmitry Ganyushin       : Spin-Orbit,Spin-Spin,Magnetic field MRCI
   Miquel Garcia          : C-PCM and meta-GGA Hessian, CC/C-PCM, Gaussian charge scheme
   Yang Guo               : DLPNO-NEVPT2, F12-NEVPT2, CIM, IAO-localization
   Andreas Hansen         : Spin unrestricted coupled pair/coupled cluster methods
   Benjamin Helmich-Paris : MC-RPA, TRAH-SCF, COSX integrals
   Lee Huntington         : MR-EOM, pCC
   Robert Izsak           : Overlap fitted RIJCOSX, COSX-SCS-MP3, EOM
   Marcus Kettner         : VPT2
   Christian Kollmar      : KDIIS, OOCD, Brueckner-CCSD(T), CCSD density, CASPT2, CASPT2-K
   Simone Kossmann        : Meta GGA functionals, TD-DFT gradient, OOMP2, MP2 Hessian
   Martin Krupicka        : Initial AUTO-CI
   Lucas Lang             : DCDCAS
   Marvin Lechner         : AUTO-CI (C++ implementation), FIC-MRCC
   Dagmar Lenk            : GEPOL surface, SMD
   Dimitrios Liakos       : Extrapolation schemes; Compound Job, initial MDCI parallelization
   Dimitrios Manganas     : Further ROCIS development; embedding schemes
   Dimitrios Pantazis     : SARC Basis sets
   Anastasios Papadopoulos: AUTO-CI, single reference methods and gradients
   Taras Petrenko         : DFT Hessian,TD-DFT gradient, ASA, ECA, R-Raman, ABS, FL, XAS/XES, NRVS
   Peter Pinski           : DLPNO-MP2, DLPNO-MP2 Gradient
   Christoph Reimann      : Effective Core Potentials
   Marius Retegan         : Local ZFS, SOC
   Christoph Riplinger    : Optimizer, TS searches, QM/MM, DLPNO-CCSD(T), (RO)-DLPNO pert. Triples
   Tobias Risthaus        : Range-separated hybrids, TD-DFT gradient, RPA, STAB
   Michael Roemelt        : Original ROCIS implementation
   Masaaki Saitow         : Open-shell DLPNO-CCSD energy and density
   Barbara Sandhoefer     : DKH picture change effects
   Avijit Sen             : IP-ROCIS
   Kantharuban Sivalingam : CASSCF convergence, NEVPT2, FIC-MRCI
   Bernardo de Souza      : ESD, SOC TD-DFT
   Georgi Stoychev        : AutoAux, RI-MP2 NMR, DLPNO-MP2 response
   Willem Van den Heuvel  : Paramagnetic NMR
   Boris Wezisla          : Elementary symmetry handling
   Frank Wennmohs         : Technical directorship


 We gratefully acknowledge several colleagues who have allowed us to
 interface, adapt or use parts of their codes:
   Stefan Grimme, W. Hujo, H. Kruse, P. Pracht,  : VdW corrections, initial TS optimization,
                  C. Bannwarth, S. Ehlert          DFT functionals, gCP, sTDA/sTD-DF
   Ed Valeev, F. Pavosevic, A. Kumar             : LibInt (2-el integral package), F12 methods
   Garnet Chan, S. Sharma, J. Yang, R. Olivares  : DMRG
   Ulf Ekstrom                                   : XCFun DFT Library
   Mihaly Kallay                                 : mrcc  (arbitrary order and MRCC methods)
   Jiri Pittner, Ondrej Demel                    : Mk-CCSD
   Frank Weinhold                                : gennbo (NPA and NBO analysis)
   Christopher J. Cramer and Donald G. Truhlar   : smd solvation model
   Lars Goerigk                                  : TD-DFT with DH, B97 family of functionals
   V. Asgeirsson, H. Jonsson                     : NEB implementation
   FAccTs GmbH                                   : IRC, NEB, NEB-TS, DLPNO-Multilevel, CI-OPT
                                                   MM, QMMM, 2- and 3-layer-ONIOM, Crystal-QMMM,
                                                   LR-CPCM, SF, NACMEs, symmetry and pop. for TD-DFT,
                                                   nearIR, NL-DFT gradient (VV10), updates on ESD,
                                                   ML-optimized integration grids
   S Lehtola, MJT Oliveira, MAL Marques          : LibXC Library
   Liviu Ungur et al                             : ANISO software


 Your calculation uses the libint2 library for the computation of 2-el integrals
 For citations please refer to: http://libint.valeyev.net

 Your ORCA version has been built with support for libXC version: 5.1.0
 For citations please refer to: https://tddft.org/programs/libxc/

 This ORCA versions uses:
   CBLAS   interface :  Fast vector & matrix operations
   LAPACKE interface :  Fast linear algebra routines
   SCALAPACK package :  Parallel linear algebra routines
   Shared memory     :  Shared parallel matrices
   BLAS/LAPACK       :  OpenBLAS 0.3.15  USE64BITINT DYNAMIC_ARCH NO_AFFINITY SkylakeX SINGLE_THREADED
        Core in use  :  SkylakeX
   Copyright (c) 2011-2014, The OpenBLAS Project


================================================================================

----- Orbital basis set information -----
Your calculation utilizes the basis: aug-cc-pVTZ-J 
  Obtained from the EMSL Basis Set Exchange (bse.pnl.gov) Feb. 2017
  H, C-O : P. F. Provasi, G. A. Aucar, S. P. A. Sauer, J. Chem. Phys. 115, 1324 (2001)
           R. A. Kendall, T. H. Dunning, Jr., R. J. Harrison, J. Chem. Phys. 96, 6796 (1992)
           T. Enevoldsen, J. Oddershede, S. P. A. Sauer, Theor. Chem. Acc. 100, 275 (1998)
           T. H. Dunning, Jr., J. Chem. Phys. 90, 1007 (1989)
       B : P. F. Provasi, S. P. A. Sauer, J. Chem. Phys. 133, 054308 (2010)
           T. Enevoldsen, J. Oddershede, S. P. A. Sauer, Theor. Chem. Acc. 100, 275 (1998)
           T. H. Dunning, Jr., J. Chem. Phys. 90, 1007 (1989)
       F : R. A. Kendall, T. H. Dunning, Jr., R. J. Harrison, J. Chem. Phys. 96, 6796 (1992)
           T. Enevoldsen, J. Oddershede, S. P. A. Sauer, Theor. Chem. Acc. 100, 275 (1998)
           T. H. Dunning, Jr., J. Chem. Phys. 90, 1007 (1989)
           V. Barone, P. F. Provasi, J. E. Peralta, J. P. Snyder, S. P. A. Sauer, R. H. Contreras, J. Phys. Chem. A 107, 4748 (2003)
      Al : D. E. Woon, T. H. Dunning, Jr., J. Chem. Phys. 98, 1358 (1993)
           P. F. Provasi, S. P. A. Sauer, J. Chem. Phys. 133, 054308 (2010)
           T. Enevoldsen, J. Oddershede, S. P. A. Sauer, Theor. Chem. Acc. 100, 275 (1998)
      Si : D. E. Woon, T. H. Dunning, Jr., J. Chem. Phys. 98, 1358 (1993)
           P. F. Provasi, S. P. A. Sauer, J. Chem. Phys. 133, 054308 (2010)
           S. P. A. Sauer, W. T. Raynes, J. Chem. Phys. 113, 3121 (2000)
           S. P. A. Sauer, W. T. Raynes, R. A. Nicholls, J. Chem. Phys. 115, 5994 (2001)
   P, Cl : D. E. Woon, T. H. Dunning, Jr., J. Chem. Phys. 98, 1358 (1993)
           P. F. Provasi, S. P. A. Sauer, J. Chem. Phys. 133, 054308 (2010)
       S : D. E. Woon, T. H. Dunning, Jr., J. Chem. Phys. 98, 1358 (1993)
           P. F. Provasi, G. A. Aucar, S. P. A. Sauer, J. Chem. Phys. 115, 1324 (2001)
   Sc-Zn : E. D. Hedegård, J. Kongsted, S. P. A. Sauer, J. Chem. Theory Comput. 7, 4077 (2011)
           N. B. Balabanov, K. A. Peterson, J. Chem. Phys. 123, 64107 (2005)
      Se : Y. Yu. Rusakov, L. B. Krivdin, S. P. A. Sauer, E. P. Levanova, G. G. Levkovskaya, Magn. Res. Chem. 48, 44-52 (2010)

================================================================================
                                        WARNINGS
                       Please study these warnings very carefully!
================================================================================


WARNING: Geometry Optimization
  ===> : Switching off AutoStart
         For restart on a previous wavefunction, please use MOREAD

INFO   : the flag for use of the SHARK integral package has been found!



***************************************
The coordinates will be read from file: 
***************************************


================================================================================

----- Orbital basis set information -----
Your calculation utilizes the basis: aug-cc-pVTZ-J 
  Obtained from the EMSL Basis Set Exchange (bse.pnl.gov) Feb. 2017
  H, C-O : P. F. Provasi, G. A. Aucar, S. P. A. Sauer, J. Chem. Phys. 115, 1324 (2001)
           R. A. Kendall, T. H. Dunning, Jr., R. J. Harrison, J. Chem. Phys. 96, 6796 (1992)
           T. Enevoldsen, J. Oddershede, S. P. A. Sauer, Theor. Chem. Acc. 100, 275 (1998)
           T. H. Dunning, Jr., J. Chem. Phys. 90, 1007 (1989)
       B : P. F. Provasi, S. P. A. Sauer, J. Chem. Phys. 133, 054308 (2010)
           T. Enevoldsen, J. Oddershede, S. P. A. Sauer, Theor. Chem. Acc. 100, 275 (1998)
           T. H. Dunning, Jr., J. Chem. Phys. 90, 1007 (1989)
       F : R. A. Kendall, T. H. Dunning, Jr., R. J. Harrison, J. Chem. Phys. 96, 6796 (1992)
           T. Enevoldsen, J. Oddershede, S. P. A. Sauer, Theor. Chem. Acc. 100, 275 (1998)
           T. H. Dunning, Jr., J. Chem. Phys. 90, 1007 (1989)
           V. Barone, P. F. Provasi, J. E. Peralta, J. P. Snyder, S. P. A. Sauer, R. H. Contreras, J. Phys. Chem. A 107, 4748 (2003)
      Al : D. E. Woon, T. H. Dunning, Jr., J. Chem. Phys. 98, 1358 (1993)
           P. F. Provasi, S. P. A. Sauer, J. Chem. Phys. 133, 054308 (2010)
           T. Enevoldsen, J. Oddershede, S. P. A. Sauer, Theor. Chem. Acc. 100, 275 (1998)
      Si : D. E. Woon, T. H. Dunning, Jr., J. Chem. Phys. 98, 1358 (1993)
           P. F. Provasi, S. P. A. Sauer, J. Chem. Phys. 133, 054308 (2010)
           S. P. A. Sauer, W. T. Raynes, J. Chem. Phys. 113, 3121 (2000)
           S. P. A. Sauer, W. T. Raynes, R. A. Nicholls, J. Chem. Phys. 115, 5994 (2001)
   P, Cl : D. E. Woon, T. H. Dunning, Jr., J. Chem. Phys. 98, 1358 (1993)
           P. F. Provasi, S. P. A. Sauer, J. Chem. Phys. 133, 054308 (2010)
       S : D. E. Woon, T. H. Dunning, Jr., J. Chem. Phys. 98, 1358 (1993)
           P. F. Provasi, G. A. Aucar, S. P. A. Sauer, J. Chem. Phys. 115, 1324 (2001)
   Sc-Zn : E. D. Hedegård, J. Kongsted, S. P. A. Sauer, J. Chem. Theory Comput. 7, 4077 (2011)
           N. B. Balabanov, K. A. Peterson, J. Chem. Phys. 123, 64107 (2005)
      Se : Y. Yu. Rusakov, L. B. Krivdin, S. P. A. Sauer, E. P. Levanova, G. G. Levkovskaya, Magn. Res. Chem. 48, 44-52 (2010)

================================================================================
                                        WARNINGS
                       Please study these warnings very carefully!
================================================================================


INFO   : the flag for use of the SHARK integral package has been found!

================================================================================
                                       INPUT FILE
================================================================================
NAME = /beegfs/scratch/jdstates/Radical_Geometry/CX3_geometry_calcs/input_files/CX3_radical/C-Cl-Cl-H_radical_IN-PROGRESS/C-Cl-Cl-H_radical.inp
|  1> # Formula: C-Cl-Cl-H_radical
|  2> 
|  3> ! UKS NORI TightSCF PBE0 aug-cc-PVTZ-J xyzfile opt NOPOP
|  4> %base "C-Cl-Cl-H_radical_opt" 
|  5> 
|  6> * xyz 0 2
|  7> C	0.004	0.210	0.354
|  8> Cl	1.458	-0.695	-0.093
|  9> Cl	-1.454	-0.704	-0.091
| 10> H	-0.008	1.190	-0.171
| 11> *
| 12> 
| 13> $new_job
| 14> ! UKS NORI PBE0 aug-cc-PVTZ-J NBO
| 15> %base "C-Cl-Cl-H_radical_EPR"
| 16> 
| 17> *xyzfile 0 2
| 18> 
| 19> %EPRNMR
| 20> 	GTENSOR		TRUE
| 21> 	NUCLEI		= ALL C  {AISO, ADIP, AORB}
| 22> 	NUCLEI		= ALL H  {AISO, ADIP, AORB}
| 23> 	NUCLEI		= ALL F  {AISO, ADIP, AORB}
| 24> 	NUCLEI		= ALL Cl {AISO, ADIP, AORB}
| 25> 	NUCLEI		= ALL Br {AISO, ADIP, AORB}
| 26> 	NUCLEI		= ALL I  {AISO, ADIP, AORB}
| 27> END
| 28> 
| 29> %NBO
| 30> 	NBOKEYLIST = "$NBO NBO NPA AONBO=C PRINT=1 ARCHIVE $END"
| 31> END
| 32> 
| 33>                          ****END OF INPUT****
================================================================================


                 $$$$$$$$$$$$$$$$$$$$$$$$$$$$$$$$$$$$$$$$$$$$$$ 
                 $ THERE ARE  2 JOBS TO BE PROCESSED THIS RUN $
                 $$$$$$$$$$$$$$$$$$$$$$$$$$$$$$$$$$$$$$$$$$$$$$ 




                 $$$$$$$$$$$$$$$$  JOB NUMBER  1 $$$$$$$$$$$$$$


                       *****************************
                       * Geometry Optimization Run *
                       *****************************

Geometry optimization settings:
Update method            Update   .... BFGS
Choice of coordinates    CoordSys .... Z-matrix Internals
Initial Hessian          InHess   .... Almoef's Model

Convergence Tolerances:
Energy Change            TolE     ....  5.0000e-06 Eh
Max. Gradient            TolMAXG  ....  3.0000e-04 Eh/bohr
RMS Gradient             TolRMSG  ....  1.0000e-04 Eh/bohr
Max. Displacement        TolMAXD  ....  4.0000e-03 bohr
RMS Displacement         TolRMSD  ....  2.0000e-03 bohr
Strict Convergence                ....  False
------------------------------------------------------------------------------
                        ORCA OPTIMIZATION COORDINATE SETUP
------------------------------------------------------------------------------

The optimization will be done in new redundant internal coordinates
Making redundant internal coordinates   ...  (new redundants) done
Evaluating the initial hessian          ...  (Almloef) done
Evaluating the coordinates              ...  done
Calculating the B-matrix                .... done
Calculating the G-matrix                .... done
Diagonalizing the G-matrix              .... done
The first mode is                       ....    1
The number of degrees of freedom        ....    6

    -----------------------------------------------------------------
                    Redundant Internal Coordinates


    -----------------------------------------------------------------
         Definition                    Initial Value    Approx d2E/dq
    -----------------------------------------------------------------
      1. B(Cl  1,C   0)                  1.7700         0.347093   
      2. B(Cl  2,C   0)                  1.7774         0.337790   
      3. B(H   3,C   0)                  1.1118         0.332348   
      4. A(Cl  1,C   0,H   3)          109.8944         0.329382   
      5. A(Cl  2,C   0,H   3)          109.0373         0.327909   
      6. A(Cl  1,C   0,Cl  2)          110.3461         0.384050   
      7. I(Cl  1,H   3,Cl  2,C   0)    -53.6543         0.005815   
    -----------------------------------------------------------------

Number of atoms                         .... 4
Number of degrees of freedom            .... 7

         *************************************************************
         *                GEOMETRY OPTIMIZATION CYCLE   1            *
         *************************************************************
---------------------------------
CARTESIAN COORDINATES (ANGSTROEM)
---------------------------------
  C      0.004000    0.210000    0.354000
  Cl     1.458000   -0.695000   -0.093000
  Cl    -1.454000   -0.704000   -0.091000
  H     -0.008000    1.190000   -0.171000

----------------------------
CARTESIAN COORDINATES (A.U.)
----------------------------
  NO LB      ZA    FRAG     MASS         X           Y           Z
   0 C     6.0000    0    12.011    0.007559    0.396842    0.668963
   1 Cl   17.0000    0    35.453    2.755221   -1.313360   -0.175745
   2 Cl   17.0000    0    35.453   -2.747662   -1.330367   -0.171965
   3 H     1.0000    0     1.008   -0.015118    2.248774   -0.323143

--------------------------------
INTERNAL COORDINATES (ANGSTROEM)
--------------------------------
 C      0   0   0     0.000000000000     0.00000000     0.00000000
 Cl     1   0   0     1.770014124237     0.00000000     0.00000000
 Cl     1   2   0     1.777409632021   110.34609593     0.00000000
 H      1   2   3     1.111831372106   109.89444537   239.72404680

---------------------------
INTERNAL COORDINATES (A.U.)
---------------------------
 C      0   0   0     0.000000000000     0.00000000     0.00000000
 Cl     1   0   0     3.344841947981     0.00000000     0.00000000
 Cl     1   2   0     3.358817432313   110.34609593     0.00000000
 H      1   2   3     2.101056800383   109.89444537   239.72404680

---------------------
BASIS SET INFORMATION
---------------------
There are 3 groups of distinct atoms

 Group   1 Type C   : 15s6p3d1f contracted to 9s5p3d1f pattern {711111111/21111/111/1}
 Group   2 Type Cl  : 32s15p6d1f contracted to 10s7p6d1f pattern {121211111111/5511111/111111/1}
 Group   3 Type H   : 10s3p1d contracted to 6s3p1d pattern {511111/111/1}

Atom   0C    basis set group =>   1
Atom   1Cl   basis set group =>   2
Atom   2Cl   basis set group =>   2
Atom   3H    basis set group =>   3
------------------------------------------------------------------------------
                           ORCA GTO INTEGRAL CALCULATION
------------------------------------------------------------------------------
------------------------------------------------------------------------------
                   ___                                                        
                  /   \      - P O W E R E D   B Y -                         
                 /     \                                                     
                 |  |  |   _    _      __       _____    __    __             
                 |  |  |  | |  | |    /  \     |  _  \  |  |  /  |          
                  \  \/   | |  | |   /    \    | | | |  |  | /  /          
                 / \  \   | |__| |  /  /\  \   | |_| |  |  |/  /          
                |  |  |   |  __  | /  /__\  \  |    /   |      \           
                |  |  |   | |  | | |   __   |  |    \   |  |\   \          
                \     /   | |  | | |  |  |  |  | |\  \  |  | \   \       
                 \___/    |_|  |_| |__|  |__|  |_| \__\ |__|  \__/        
                                                                              
                      - O R C A' S   B I G   F R I E N D -                    
                                      &                                       
                       - I N T E G R A L  F E E D E R -                       
                                                                              
 v1 FN, 2020, v2 2021                                                         
------------------------------------------------------------------------------


Reading SHARK input file C-Cl-Cl-H_radical_opt.SHARKINP.tmp ... ok
----------------------
SHARK INTEGRAL PACKAGE
----------------------

Number of atoms                             ...      4
Number of basis functions                   ...    240
Number of shells                            ...    102
Maximum angular momentum                    ...      3
Integral batch strategy                     ... SHARK/LIBINT Hybrid
RI-J (if used) integral strategy            ... SPLIT-RIJ (Revised 2003 algorithm where possible)
Printlevel                                  ...      1
Contraction scheme used                     ... PARTIAL GENERAL contraction
Coulomb Range Separation                    ... NOT USED
Exchange Range Separation                   ... NOT USED
Finite Nucleus Model                        ... NOT USED
Auxiliary Coulomb fitting basis             ... NOT available
Auxiliary J/K fitting basis                 ... NOT available
Auxiliary Correlation fitting basis         ... NOT available
Auxiliary 'external' fitting basis          ... NOT available
Integral threshold                          ...     2.500000e-11
Primitive cut-off                           ...     2.500000e-12
Primitive pair pre-selection threshold      ...     2.500000e-12

Calculating pre-screening integrals         ... done (  0.0 sec) Dimension = 102
Calculating pre-screening integrals (ORCA)  ... done (  0.1 sec) Dimension = 76
Organizing shell pair data                  ... done (  0.0 sec)
Shell pair information
Total number of shell pairs                 ...      5253
Shell pairs after pre-screening             ...      4071
Total number of primitive shell pairs       ...      6473
Primitive shell pairs kept                  ...      4696
          la=0 lb=0:   1019 shell pairs
          la=1 lb=0:   1182 shell pairs
          la=1 lb=1:    352 shell pairs
          la=2 lb=0:    698 shell pairs
          la=2 lb=1:    400 shell pairs
          la=2 lb=2:    127 shell pairs
          la=3 lb=0:    155 shell pairs
          la=3 lb=1:     84 shell pairs
          la=3 lb=2:     48 shell pairs
          la=3 lb=3:      6 shell pairs

Calculating one electron integrals          ... done (  0.0 sec)
Calculating Nuclear repulsion               ... done (  0.0 sec) ENN=    123.774269893180 Eh

SHARK setup successfully completed in   0.7 seconds

Maximum memory used throughout the entire GTOINT-calculation: 39.7 MB
-------------------------------------------------------------------------------
                                 ORCA SCF
-------------------------------------------------------------------------------

------------
SCF SETTINGS
------------
Hamiltonian:
 Density Functional     Method          .... DFT(GTOs)
 Exchange Functional    Exchange        .... PBE
   PBE kappa parameter   XKappa         ....  0.804000
   PBE mue parameter    XMuePBE         ....  0.219520
 Correlation Functional Correlation     .... PBE
   PBE beta parameter  CBetaPBE         ....  0.066725
 LDA part of GGA corr.  LDAOpt          .... PW91-LDA
 Gradients option       PostSCFGGA      .... off
 Hybrid DFT is turned on
   Fraction HF Exchange ScalHFX         ....  0.250000
   Scaling of DF-GGA-X  ScalDFX         ....  0.750000
   Scaling of DF-GGA-C  ScalDFC         ....  1.000000
   Scaling of DF-LDA-C  ScalLDAC        ....  1.000000
   Perturbative correction              ....  0.000000
   Density functional embedding theory  .... OFF
   NL short-range parameter             ....  6.900000


General Settings:
 Integral files         IntName         .... C-Cl-Cl-H_radical_opt
 Hartree-Fock type      HFTyp           .... UHF
 Total Charge           Charge          ....    0
 Multiplicity           Mult            ....    2
 Number of Electrons    NEL             ....   41
 Basis Dimension        Dim             ....  202
 Nuclear Repulsion      ENuc            ....    123.7742698932 Eh

Convergence Acceleration:
 DIIS                   CNVDIIS         .... on
   Start iteration      DIISMaxIt       ....    12
   Startup error        DIISStart       ....  0.200000
   # of expansion vecs  DIISMaxEq       ....     5
   Bias factor          DIISBfac        ....   1.050
   Max. coefficient     DIISMaxC        ....  10.000
 Trust-Rad. Augm. Hess. CNVTRAH         .... auto
   Auto Start mean grad. ratio tolernc. ....  1.125000
   Auto Start start iteration           ....    20
   Auto Start num. interpolation iter.  ....    10
   Max. Number of Micro iterations      ....    16
   Max. Number of Macro iterations      .... Maxiter - #DIIS iter
   Number of Davidson start vectors     ....     2
   Converg. threshold I  (grad. norm)   ....   1.000e-05
   Converg. threshold II (energy diff.) ....   1.000e-08
   Grad. Scal. Fac. for Micro threshold ....   0.100
   Minimum threshold for Micro iter.    ....   0.010
   NR start threshold (gradient norm)   ....   0.001
   Initial trust radius                 ....   0.400
   Minimum AH scaling param. (alpha)    ....   1.000
   Maximum AH scaling param. (alpha)    .... 1000.000
   Orbital update algorithm             .... Taylor
   White noise on init. David. guess    .... on
   Maximum white noise                  ....   0.010
   Quad. conv. algorithm                .... NR
 SOSCF                  CNVSOSCF        .... off
 Level Shifting         CNVShift        .... on
   Level shift para.    LevelShift      ....    0.2500
   Turn off err/grad.   ShiftErr        ....    0.0010
 Zerner damping         CNVZerner       .... off
 Static damping         CNVDamp         .... on
   Fraction old density DampFac         ....    0.7000
   Max. Damping (<1)    DampMax         ....    0.9800
   Min. Damping (>=0)   DampMin         ....    0.0000
   Turn off err/grad.   DampErr         ....    0.1000
 Fernandez-Rico         CNVRico         .... off

SCF Procedure:
 Maximum # iterations   MaxIter         ....   125
 SCF integral mode      SCFMode         .... Direct
   Integral package                     .... SHARK and LIBINT hybrid scheme
 Reset frequency        DirectResetFreq ....    20
 Integral Threshold     Thresh          ....  2.500e-11 Eh
 Primitive CutOff       TCut            ....  2.500e-12 Eh

Convergence Tolerance:
 Convergence Check Mode ConvCheckMode   .... Total+1el-Energy
 Convergence forced     ConvForced      .... 0
 Energy Change          TolE            ....  1.000e-08 Eh
 1-El. energy change                    ....  1.000e-05 Eh
 DIIS Error             TolErr          ....  5.000e-07


Diagonalization of the overlap matrix:
Smallest eigenvalue                        ... 7.694e-05
Time for diagonalization                   ...    0.012 sec
Threshold for overlap eigenvalues          ... 1.000e-08
Number of eigenvalues below threshold      ... 0
Time for construction of square roots      ...    0.005 sec
Total time needed                          ...    0.017 sec

Time for model grid setup =    0.105 sec

------------------------------
INITIAL GUESS: MODEL POTENTIAL
------------------------------
Loading Hartree-Fock densities                     ... done
Calculating cut-offs                               ... done
Initializing the effective Hamiltonian             ... done
Setting up the integral package (SHARK)            ... done
Starting the Coulomb interaction                   ... done (   0.3 sec)
Reading the grid                                   ... done
Mapping shells                                     ... done
Starting the XC term evaluation                    ... done (   0.1 sec)
  promolecular density results
     # of electrons  =     40.998873856
     EX              =    -60.118342493
     EC              =     -1.552695105
     EX+EC           =    -61.671037597
Transforming the Hamiltonian                       ... done (   0.0 sec)
Diagonalizing the Hamiltonian                      ... done (   0.0 sec)
Back transforming the eigenvectors                 ... done (   0.0 sec)
Now organizing SCF variables                       ... done
                      ------------------
                      INITIAL GUESS DONE (   0.5 sec)
                      ------------------
-------------------
DFT GRID GENERATION
-------------------

General Integration Accuracy     IntAcc      ... 4.388
Radial Grid Type                 RadialGrid  ... OptM3 with GC (2021)
Angular Grid (max. ang.)         AngularGrid ... 4 (Lebedev-302)
Angular grid pruning method      GridPruning ... 4 (adaptive)
Weight generation scheme         WeightScheme... Becke
Basis function cutoff            BFCut       ... 1.0000e-11
Integration weight cutoff        WCut        ... 1.0000e-14
Angular grids for H and He will be reduced by one unit
Partially contracted basis set               ... off
Rotationally invariant grid construction     ... off

Total number of grid points                  ...    25302
Total number of batches                      ...      398
Average number of points per batch           ...       63
Average number of grid points per atom       ...     6326
Time for grid setup =    0.263 sec

--------------
SCF ITERATIONS
--------------
ITER       Energy         Delta-E        Max-DP      RMS-DP      [F,P]     Damp
               ***  Starting incremental Fock matrix formation  ***
  0   -958.7369794821   0.000000000000 0.02208959  0.00034311  0.0553135 0.7000
  1   -958.7408196902  -0.003840208072 0.01552179  0.00024740  0.0385421 0.7000
                               ***Turning on DIIS***
  2   -958.7433829879  -0.002563297689 0.03623748  0.00058115  0.0268992 0.0000
  3   -958.7495457013  -0.006162713388 0.00734535  0.00008580  0.0090677 0.0000
  4   -958.7500908486  -0.000545147317 0.00337536  0.00003675  0.0048791 0.0000
  5   -958.7503302263  -0.000239377749 0.00172419  0.00003018  0.0022450 0.0000
  6   -958.7504166409  -0.000086414510 0.00095896  0.00001827  0.0014949 0.0000
  7   -958.7504487759  -0.000032135035 0.00094469  0.00001825  0.0007918 0.0000
  8   -958.7504626370  -0.000013861096 0.00018583  0.00000314  0.0001035 0.0000
  9   -958.7504630881  -0.000000451115 0.00004802  0.00000079  0.0000284 0.0000
 10   -958.7504631135  -0.000000025394 0.00002460  0.00000038  0.0000181 0.0000
 11   -958.7504631227  -0.000000009233 0.00000765  0.00000014  0.0000095 0.0000
 12   -958.7504631239  -0.000000001222 0.00000486  0.00000008  0.0000051 0.0000
 13   -958.7504631246  -0.000000000700 0.00000200  0.00000003  0.0000022 0.0000
                 **** Energy Check signals convergence ****

               *****************************************************
               *                     SUCCESS                       *
               *           SCF CONVERGED AFTER  14 CYCLES          *
               *****************************************************


----------------
TOTAL SCF ENERGY
----------------

Total Energy       :         -958.75046312 Eh          -26088.92644 eV

Components:
Nuclear Repulsion  :          123.77426989 Eh            3368.06911 eV
Electronic Energy  :        -1082.52473302 Eh          -29456.99555 eV
One Electron Energy:        -1568.60829216 Eh          -42684.00164 eV
Two Electron Energy:          486.08355914 Eh           13227.00609 eV

Virial components:
Potential Energy   :        -1915.96954141 Eh          -52136.18177 eV
Kinetic Energy     :          957.21907828 Eh           26047.25534 eV
Virial Ratio       :            2.00159983


DFT components:
N(Alpha)           :       21.000007200660 electrons
N(Beta)            :       20.000004758383 electrons
N(Total)           :       41.000011959043 electrons
E(X)               :      -45.175843769422 Eh       
E(C)               :       -1.549895307711 Eh       
E(XC)              :      -46.725739077132 Eh       
DFET-embed. en.    :        0.000000000000 Eh       

---------------
SCF CONVERGENCE
---------------

  Last Energy change         ...    4.9624e-10  Tolerance :   1.0000e-08
  Last MAX-Density change    ...    1.5833e-06  Tolerance :   1.0000e-07
  Last RMS-Density change    ...    2.6920e-08  Tolerance :   5.0000e-09
  Last DIIS Error            ...    5.2005e-07  Tolerance :   5.0000e-07

             **** THE GBW FILE WAS UPDATED (C-Cl-Cl-H_radical_opt.gbw) ****
             **** DENSITY C-Cl-Cl-H_radical_opt.scfp WAS UPDATED ****
             **** ENERGY FILE WAS UPDATED (C-Cl-Cl-H_radical_opt.en.tmp) ****
----------------------
UHF SPIN CONTAMINATION
----------------------

Warning: in a DFT calculation there is little theoretical justification to 
         calculate <S**2> as in Hartree-Fock theory. We will do it anyways
         but you should keep in mind that the values have only limited relevance

Expectation value of <S**2>     :     0.755194
Ideal value S*(S+1) for S=0.5   :     0.750000
Deviation                       :     0.005194

             **** THE GBW FILE WAS UPDATED (C-Cl-Cl-H_radical_opt.gbw) ****
             **** DENSITY C-Cl-Cl-H_radical_opt.scfp WAS UPDATED ****
----------------
ORBITAL ENERGIES
----------------
                 SPIN UP ORBITALS
  NO   OCC          E(Eh)            E(eV) 
   0   1.0000    -101.735481     -2768.3632 
   1   1.0000    -101.734245     -2768.3295 
   2   1.0000     -10.377224      -282.3786 
   3   1.0000      -9.560163      -260.1453 
   4   1.0000      -9.558885      -260.1105 
   5   1.0000      -7.294127      -198.4833 
   6   1.0000      -7.292851      -198.4486 
   7   1.0000      -7.287138      -198.2931 
   8   1.0000      -7.285850      -198.2580 
   9   1.0000      -7.285213      -198.2407 
  10   1.0000      -7.283941      -198.2061 
  11   1.0000      -0.938615       -25.5410 
  12   1.0000      -0.864057       -23.5122 
  13   1.0000      -0.673117       -18.3164 
  14   1.0000      -0.499976       -13.6050 
  15   1.0000      -0.473394       -12.8817 
  16   1.0000      -0.434585       -11.8257 
  17   1.0000      -0.360062        -9.7978 
  18   1.0000      -0.353943        -9.6313 
  19   1.0000      -0.336116        -9.1462 
  20   1.0000      -0.274814        -7.4781 
  21   0.0000      -0.024677        -0.6715 
  22   0.0000       0.001378         0.0375 
  23   0.0000       0.008678         0.2361 
  24   0.0000       0.038322         1.0428 
  25   0.0000       0.047072         1.2809 
  26   0.0000       0.051291         1.3957 
  27   0.0000       0.081654         2.2219 
  28   0.0000       0.083706         2.2778 
  29   0.0000       0.090257         2.4560 
  30   0.0000       0.091382         2.4866 
  31   0.0000       0.091706         2.4955 
  32   0.0000       0.100753         2.7416 
  33   0.0000       0.123190         3.3522 
  34   0.0000       0.154454         4.2029 
  35   0.0000       0.173631         4.7247 
  36   0.0000       0.183900         5.0042 
  37   0.0000       0.197827         5.3831 
  38   0.0000       0.208173         5.6647 
  39   0.0000       0.224528         6.1097 
  40   0.0000       0.242534         6.5997 
  41   0.0000       0.246230         6.7002 
  42   0.0000       0.261299         7.1103 
  43   0.0000       0.289471         7.8769 
  44   0.0000       0.300254         8.1703 
  45   0.0000       0.311760         8.4834 
  46   0.0000       0.327510         8.9120 
  47   0.0000       0.338271         9.2048 
  48   0.0000       0.351253         9.5581 
  49   0.0000       0.355514         9.6740 
  50   0.0000       0.372368        10.1326 
  51   0.0000       0.402721        10.9586 
  52   0.0000       0.405727        11.0404 
  53   0.0000       0.419574        11.4172 
  54   0.0000       0.430045        11.7021 
  55   0.0000       0.501669        13.6511 
  56   0.0000       0.550325        14.9751 
  57   0.0000       0.574729        15.6392 
  58   0.0000       0.582109        15.8400 
  59   0.0000       0.593077        16.1384 
  60   0.0000       0.603006        16.4086 
  61   0.0000       0.631959        17.1965 
  62   0.0000       0.651112        17.7177 
  63   0.0000       0.661735        18.0067 
  64   0.0000       0.680516        18.5178 
  65   0.0000       0.681141        18.5348 
  66   0.0000       0.686543        18.6818 
  67   0.0000       0.693078        18.8596 
  68   0.0000       0.702039        19.1034 
  69   0.0000       0.718173        19.5425 
  70   0.0000       0.723615        19.6906 
  71   0.0000       0.743797        20.2397 
  72   0.0000       0.749513        20.3953 
  73   0.0000       0.790625        21.5140 
  74   0.0000       0.804292        21.8859 
  75   0.0000       0.863807        23.5054 
  76   0.0000       0.887665        24.1546 
  77   0.0000       0.931672        25.3521 
  78   0.0000       1.037150        28.2223 
  79   0.0000       1.061997        28.8984 
  80   0.0000       1.096211        29.8294 
  81   0.0000       1.182710        32.1832 
  82   0.0000       1.267439        34.4888 
  83   0.0000       1.275234        34.7009 
  84   0.0000       1.349730        36.7280 
  85   0.0000       1.418673        38.6041 
  86   0.0000       1.892060        51.4856 
  87   0.0000       1.981929        53.9310 
  88   0.0000       1.985726        54.0344 
  89   0.0000       2.013665        54.7946 
  90   0.0000       2.029463        55.2245 
  91   0.0000       2.037050        55.4309 
  92   0.0000       2.038596        55.4730 
  93   0.0000       2.057669        55.9920 
  94   0.0000       2.065233        56.1978 
  95   0.0000       2.066265        56.2259 
  96   0.0000       2.071019        56.3553 
  97   0.0000       2.079387        56.5830 
  98   0.0000       2.083954        56.7073 
  99   0.0000       2.089928        56.8698 
 100   0.0000       2.093327        56.9623 
 101   0.0000       2.100673        57.1622 
 102   0.0000       2.105269        57.2873 
 103   0.0000       2.108458        57.3741 
 104   0.0000       2.122675        57.7609 
 105   0.0000       2.172015        59.1035 
 106   0.0000       2.250606        61.2421 
 107   0.0000       2.269141        61.7465 
 108   0.0000       2.287803        62.2543 
 109   0.0000       2.304979        62.7217 
 110   0.0000       2.322392        63.1955 
 111   0.0000       2.344576        63.7992 
 112   0.0000       2.375849        64.6501 
 113   0.0000       2.385018        64.8996 
 114   0.0000       2.393234        65.1232 
 115   0.0000       2.413233        65.6674 
 116   0.0000       2.435110        66.2627 
 117   0.0000       2.579551        70.1932 
 118   0.0000       2.666825        72.5680 
 119   0.0000       2.815371        76.6101 
 120   0.0000       2.868895        78.0666 
 121   0.0000       2.994971        81.4973 
 122   0.0000       3.032786        82.5263 
 123   0.0000       3.120917        84.9245 
 124   0.0000       3.127489        85.1033 
 125   0.0000       3.215041        87.4857 
 126   0.0000       3.233325        87.9832 
 127   0.0000       3.336288        90.7850 
 128   0.0000       3.344505        91.0086 
 129   0.0000       3.415514        92.9408 
 130   0.0000       3.450563        93.8946 
 131   0.0000       3.544874        96.4609 
 132   0.0000       3.595864        97.8484 
 133   0.0000       3.716237       101.1239 
 134   0.0000       3.813117       103.7602 
 135   0.0000       3.986985       108.4914 
 136   0.0000       4.125326       112.2558 
 137   0.0000       4.313725       117.3824 
 138   0.0000       4.390634       119.4752 
 139   0.0000       4.726867       128.6246 
 140   0.0000       4.762332       129.5896 
 141   0.0000       4.812894       130.9655 
 142   0.0000       5.688910       154.8031 
 143   0.0000       6.734423       183.2530 
 144   0.0000       6.743607       183.5029 
 145   0.0000       6.748678       183.6409 
 146   0.0000       6.749054       183.6511 
 147   0.0000       6.791912       184.8173 
 148   0.0000       6.801398       185.0755 
 149   0.0000       6.817670       185.5182 
 150   0.0000       6.842218       186.1862 
 151   0.0000       6.916764       188.2147 
 152   0.0000       6.957978       189.3362 
 153   0.0000       8.849369       240.8036 
 154   0.0000       9.365034       254.8355 
 155   0.0000       9.378545       255.2032 
 156   0.0000       9.869668       268.5673 
 157   0.0000       9.881091       268.8781 
 158   0.0000       9.907870       269.6069 
 159   0.0000       9.976116       271.4639 
 160   0.0000      10.260040       279.1899 
 161   0.0000      10.283216       279.8205 
 162   0.0000      10.394311       282.8436 
 163   0.0000      11.952971       325.2569 
 164   0.0000      12.826362       349.0231 
 165   0.0000      12.831899       349.1737 
 166   0.0000      23.877898       649.7506 
 167   0.0000      23.884206       649.9223 
 168   0.0000      23.886676       649.9895 
 169   0.0000      23.887083       650.0006 
 170   0.0000      23.918862       650.8653 
 171   0.0000      23.924849       651.0282 
 172   0.0000      23.936723       651.3513 
 173   0.0000      23.946932       651.6291 
 174   0.0000      24.000437       653.0851 
 175   0.0000      24.008255       653.2978 
 176   0.0000      46.307435      1260.0894 
 177   0.0000      47.413444      1290.1854 
 178   0.0000      47.428105      1290.5844 
 179   0.0000      47.454978      1291.3156 
 180   0.0000      47.511082      1292.8423 
 181   0.0000      47.594923      1295.1237 
 182   0.0000      47.620925      1295.8312 
 183   0.0000      47.909126      1303.6736 
 184   0.0000      47.931515      1304.2828 
 185   0.0000      67.346454      1832.5902 
 186   0.0000      85.794188      2334.5786 
 187   0.0000      85.798196      2334.6876 
 188   0.0000      85.799493      2334.7229 
 189   0.0000      85.800026      2334.7374 
 190   0.0000      85.822037      2335.3364 
 191   0.0000      85.825525      2335.4313 
 192   0.0000      85.834594      2335.6780 
 193   0.0000      85.838822      2335.7931 
 194   0.0000      85.870297      2336.6496 
 195   0.0000      85.874147      2336.7544 
 196   0.0000     169.098328      4601.3994 
 197   0.0000     169.155384      4602.9520 
 198   0.0000     170.623884      4642.9119 
 199   0.0000     800.008422     21769.3359 
 200   0.0000     875.038231     23811.0008 
 201   0.0000     875.108276     23812.9068 

                 SPIN DOWN ORBITALS
  NO   OCC          E(Eh)            E(eV) 
   0   1.0000    -101.734568     -2768.3383 
   1   1.0000    -101.733347     -2768.3051 
   2   1.0000     -10.361369      -281.9472 
   3   1.0000      -9.559304      -260.1219 
   4   1.0000      -9.558040      -260.0875 
   5   1.0000      -7.293351      -198.4622 
   6   1.0000      -7.292094      -198.4280 
   7   1.0000      -7.284735      -198.2277 
   8   1.0000      -7.284389      -198.2183 
   9   1.0000      -7.283472      -198.1933 
  10   1.0000      -7.283140      -198.1843 
  11   1.0000      -0.927240       -25.2315 
  12   1.0000      -0.858470       -23.3602 
  13   1.0000      -0.647047       -17.6070 
  14   1.0000      -0.487795       -13.2736 
  15   1.0000      -0.464306       -12.6344 
  16   1.0000      -0.397498       -10.8165 
  17   1.0000      -0.350079        -9.5261 
  18   1.0000      -0.347336        -9.4515 
  19   1.0000      -0.333514        -9.0754 
  20   0.0000      -0.115189        -3.1345 
  21   0.0000      -0.014849        -0.4041 
  22   0.0000       0.005545         0.1509 
  23   0.0000       0.017934         0.4880 
  24   0.0000       0.040696         1.1074 
  25   0.0000       0.054184         1.4744 
  26   0.0000       0.056886         1.5479 
  27   0.0000       0.085022         2.3136 
  28   0.0000       0.086875         2.3640 
  29   0.0000       0.092185         2.5085 
  30   0.0000       0.093446         2.5428 
  31   0.0000       0.096518         2.6264 
  32   0.0000       0.108274         2.9463 
  33   0.0000       0.125159         3.4057 
  34   0.0000       0.160195         4.3591 
  35   0.0000       0.176673         4.8075 
  36   0.0000       0.185433         5.0459 
  37   0.0000       0.203307         5.5323 
  38   0.0000       0.211383         5.7520 
  39   0.0000       0.229969         6.2578 
  40   0.0000       0.245457         6.6792 
  41   0.0000       0.251064         6.8318 
  42   0.0000       0.273497         7.4422 
  43   0.0000       0.293580         7.9887 
  44   0.0000       0.307647         8.3715 
  45   0.0000       0.315865         8.5951 
  46   0.0000       0.336885         9.1671 
  47   0.0000       0.339305         9.2330 
  48   0.0000       0.364338         9.9141 
  49   0.0000       0.372049        10.1240 
  50   0.0000       0.379175        10.3179 
  51   0.0000       0.407766        11.0959 
  52   0.0000       0.409310        11.1379 
  53   0.0000       0.425280        11.5725 
  54   0.0000       0.435574        11.8526 
  55   0.0000       0.510794        13.8994 
  56   0.0000       0.563428        15.3317 
  57   0.0000       0.579823        15.7778 
  58   0.0000       0.585187        15.9238 
  59   0.0000       0.596408        16.2291 
  60   0.0000       0.606889        16.5143 
  61   0.0000       0.636792        17.3280 
  62   0.0000       0.660684        17.9781 
  63   0.0000       0.673451        18.3255 
  64   0.0000       0.685209        18.6455 
  65   0.0000       0.686703        18.6861 
  66   0.0000       0.689276        18.7562 
  67   0.0000       0.699300        19.0289 
  68   0.0000       0.705351        19.1936 
  69   0.0000       0.723494        19.6873 
  70   0.0000       0.727900        19.8072 
  71   0.0000       0.745492        20.2859 
  72   0.0000       0.760857        20.7040 
  73   0.0000       0.797329        21.6964 
  74   0.0000       0.811989        22.0953 
  75   0.0000       0.874436        23.7946 
  76   0.0000       0.907363        24.6906 
  77   0.0000       0.950129        25.8543 
  78   0.0000       1.054956        28.7068 
  79   0.0000       1.070187        29.1213 
  80   0.0000       1.115122        30.3440 
  81   0.0000       1.196557        32.5600 
  82   0.0000       1.285032        34.9675 
  83   0.0000       1.287682        35.0396 
  84   0.0000       1.358017        36.9535 
  85   0.0000       1.426743        38.8237 
  86   0.0000       1.919968        52.2450 
  87   0.0000       1.986610        54.0584 
  88   0.0000       1.990682        54.1692 
  89   0.0000       2.020039        54.9680 
  90   0.0000       2.039715        55.5035 
  91   0.0000       2.040747        55.5315 
  92   0.0000       2.048303        55.7372 
  93   0.0000       2.063867        56.1607 
  94   0.0000       2.070326        56.3364 
  95   0.0000       2.073309        56.4176 
  96   0.0000       2.075623        56.4806 
  97   0.0000       2.085997        56.7629 
  98   0.0000       2.088172        56.8220 
  99   0.0000       2.097744        57.0825 
 100   0.0000       2.098686        57.1081 
 101   0.0000       2.111675        57.4616 
 102   0.0000       2.112584        57.4863 
 103   0.0000       2.123167        57.7743 
 104   0.0000       2.126902        57.8759 
 105   0.0000       2.175091        59.1872 
 106   0.0000       2.259519        61.4846 
 107   0.0000       2.281345        62.0786 
 108   0.0000       2.296715        62.4968 
 109   0.0000       2.311816        62.9077 
 110   0.0000       2.336619        63.5826 
 111   0.0000       2.350902        63.9713 
 112   0.0000       2.379114        64.7390 
 113   0.0000       2.392578        65.1054 
 114   0.0000       2.404165        65.4207 
 115   0.0000       2.439679        66.3870 
 116   0.0000       2.443901        66.5019 
 117   0.0000       2.596948        70.6666 
 118   0.0000       2.681006        72.9539 
 119   0.0000       2.838212        77.2317 
 120   0.0000       2.895370        78.7870 
 121   0.0000       3.010855        81.9295 
 122   0.0000       3.083840        83.9155 
 123   0.0000       3.145304        85.5881 
 124   0.0000       3.167292        86.1864 
 125   0.0000       3.228021        87.8389 
 126   0.0000       3.245350        88.3105 
 127   0.0000       3.353611        91.2564 
 128   0.0000       3.377100        91.8956 
 129   0.0000       3.429787        93.3293 
 130   0.0000       3.479219        94.6744 
 131   0.0000       3.572136        97.2028 
 132   0.0000       3.628579        98.7387 
 133   0.0000       3.730968       101.5248 
 134   0.0000       3.830380       104.2299 
 135   0.0000       3.996087       108.7391 
 136   0.0000       4.138298       112.6088 
 137   0.0000       4.319051       117.5273 
 138   0.0000       4.403709       119.8310 
 139   0.0000       4.750784       129.2754 
 140   0.0000       4.769789       129.7926 
 141   0.0000       4.826989       131.3491 
 142   0.0000       5.704118       155.2169 
 143   0.0000       6.736935       183.3213 
 144   0.0000       6.745813       183.5629 
 145   0.0000       6.750487       183.6901 
 146   0.0000       6.751419       183.7154 
 147   0.0000       6.793906       184.8716 
 148   0.0000       6.804047       185.1475 
 149   0.0000       6.818380       185.5376 
 150   0.0000       6.842313       186.1888 
 151   0.0000       6.918411       188.2595 
 152   0.0000       6.960172       189.3959 
 153   0.0000       8.903935       242.2884 
 154   0.0000       9.376950       255.1598 
 155   0.0000       9.393027       255.5972 
 156   0.0000       9.873973       268.6845 
 157   0.0000       9.882887       268.9270 
 158   0.0000       9.910838       269.6876 
 159   0.0000       9.977233       271.4943 
 160   0.0000      10.262215       279.2491 
 161   0.0000      10.284852       279.8651 
 162   0.0000      10.402412       283.0640 
 163   0.0000      11.973424       325.8134 
 164   0.0000      12.829387       349.1054 
 165   0.0000      12.833952       349.2296 
 166   0.0000      23.879547       649.7955 
 167   0.0000      23.885704       649.9631 
 168   0.0000      23.887960       650.0244 
 169   0.0000      23.888696       650.0445 
 170   0.0000      23.920254       650.9032 
 171   0.0000      23.926560       651.0748 
 172   0.0000      23.937074       651.3609 
 173   0.0000      23.947043       651.6322 
 174   0.0000      24.001232       653.1067 
 175   0.0000      24.008980       653.3176 
 176   0.0000      46.324391      1260.5508 
 177   0.0000      47.415738      1290.2478 
 178   0.0000      47.429012      1290.6090 
 179   0.0000      47.456791      1291.3649 
 180   0.0000      47.511728      1292.8599 
 181   0.0000      47.595842      1295.1487 
 182   0.0000      47.621842      1295.8562 
 183   0.0000      47.909816      1303.6924 
 184   0.0000      47.932224      1304.3021 
 185   0.0000      67.349366      1832.6694 
 186   0.0000      85.796345      2334.6372 
 187   0.0000      85.800247      2334.7434 
 188   0.0000      85.801251      2334.7707 
 189   0.0000      85.802130      2334.7947 
 190   0.0000      85.823971      2335.3890 
 191   0.0000      85.827804      2335.4933 
 192   0.0000      85.835121      2335.6924 
 193   0.0000      85.839106      2335.8008 
 194   0.0000      85.871351      2336.6782 
 195   0.0000      85.875094      2336.7801 
 196   0.0000     169.099378      4601.4280 
 197   0.0000     169.156358      4602.9785 
 198   0.0000     170.632908      4643.1575 
 199   0.0000     800.014118     21769.4909 
 200   0.0000     875.038695     23811.0134 
 201   0.0000     875.108741     23812.9195 
-------
TIMINGS
-------

Total SCF time: 0 days 0 hours 1 min 18 sec 

Total time                  ....      78.546 sec
Sum of individual times     ....      78.013 sec  ( 99.3%)

Fock matrix formation       ....      76.618 sec  ( 97.5%)
  XC integration            ....       7.795 sec  ( 10.2% of F)
    Basis function eval.    ....       1.366 sec  ( 17.5% of XC)
    Density eval.           ....       1.903 sec  ( 24.4% of XC)
    XC-Functional eval.     ....       0.536 sec  (  6.9% of XC)
    XC-Potential eval.      ....       3.621 sec  ( 46.4% of XC)
Diagonalization             ....       0.304 sec  (  0.4%)
Density matrix formation    ....       0.017 sec  (  0.0%)
Population analysis         ....       0.001 sec  (  0.0%)
Initial guess               ....       0.402 sec  (  0.5%)
Orbital Transformation      ....       0.000 sec  (  0.0%)
Orbital Orthonormalization  ....       0.000 sec  (  0.0%)
DIIS solution               ....       0.302 sec  (  0.4%)
Grid generation             ....       0.368 sec  (  0.5%)

Maximum memory used throughout the entire SCF-calculation: 264.9 MB

-------------------------   --------------------
FINAL SINGLE POINT ENERGY      -958.750463124151
-------------------------   --------------------

------------------------------------------------------------------------------
                         ORCA SCF GRADIENT CALCULATION
------------------------------------------------------------------------------

Gradient of the Kohn-Sham DFT energy:
Kohn-Sham wavefunction type      ... UKS
Hartree-Fock exchange scaling    ...    0.250
Number of operators              ...    2
Number of atoms                  ...    4
Basis set dimensions             ...  202
Integral neglect threshold       ... 2.5e-11
Integral primitive cutoff        ... 2.5e-12
SHARK Integral package           ... ON

Nuc. rep. gradient       (SHARK) ... done (  0.0 sec)
HCore & Overlap gradient (SHARK) ... done (  0.1 sec)
Two-Electron gradient    (SHARK) ... done ( 20.0 sec)
Exchange-correlation gradient    ... done

------------------
CARTESIAN GRADIENT
------------------

   1   C   :    0.002025145    0.019657132    0.045265483
   2   Cl  :    0.014378703   -0.014156816   -0.013640954
   3   Cl  :   -0.015622462   -0.014536863   -0.014099884
   4   H   :   -0.000781386    0.009036547   -0.017524645

Difference to translation invariance:
           :    0.0000000000   -0.0000000000   -0.0000000000

Difference to rotation invariance:
           :    0.0000101900    0.0000018217    0.0000034991

Norm of the cartesian gradient     ...    0.0638457324
RMS gradient                       ...    0.0184306754
MAX gradient                       ...    0.0452654830

-------
TIMINGS
-------

Total SCF gradient time            ...       21.619 sec

One electron gradient       ....       0.069 sec  (  0.3%)
Two electron gradient       ....      20.018 sec  ( 92.6%)
XC gradient                 ....       1.409 sec  (  6.5%)

Maximum memory used throughout the entire SCFGRAD-calculation: 64.0 MB
------------------------------------------------------------------------------
                         ORCA GEOMETRY RELAXATION STEP
------------------------------------------------------------------------------

Reading the OPT-File                    .... done
Getting information on internals        .... done
Copying old internal coords+grads       .... done
Making the new internal coordinates     .... (new redundants).... done
Validating the new internal coordinates .... (new redundants).... done
Calculating the B-matrix                .... done
Calculating the G,G- and P matrices     .... done
Transforming gradient to internals      .... done
Projecting the internal gradient        .... done
Number of atoms                         ....   4
Number of internal coordinates          ....   7
Current Energy                          ....  -958.750463124 Eh
Current gradient norm                   ....     0.063845732 Eh/bohr
Maximum allowed component of the step   ....  0.300
Current trust radius                    ....  0.300
Evaluating the initial hessian          ....  (Almloef) done
Projecting the Hessian                  .... done
Forming the augmented Hessian           .... done
Diagonalizing the augmented Hessian     .... done
Last element of RFO vector              ....  0.972045280
Lowest eigenvalues of augmented Hessian:
 -0.009868690  0.116262300  0.328469792  0.332924363  0.339384771
Length of the computed step             ....  0.241545816
The final length of the internal step   ....  0.241545816
Converting the step to cartesian space:
 Initial RMS(Int)=    0.0912957369
Transforming coordinates:
 Iter   0:  RMS(Cart)=    0.0538085931 RMS(Int)=    0.0905437871
 Iter   1:  RMS(Cart)=    0.0045747582 RMS(Int)=    0.0058140718
 Iter   2:  RMS(Cart)=    0.0003383502 RMS(Int)=    0.0004296453
 Iter   3:  RMS(Cart)=    0.0000397658 RMS(Int)=    0.0000560992
 Iter   4:  RMS(Cart)=    0.0000031150 RMS(Int)=    0.0000040575
 Iter   5:  RMS(Cart)=    0.0000003751 RMS(Int)=    0.0000005167
 Iter   6:  RMS(Cart)=    0.0000000283 RMS(Int)=    0.0000000387
done
Storing new coordinates                 .... done

                                .--------------------.
          ----------------------|Geometry convergence|-------------------------
          Item                value                   Tolerance       Converged
          ---------------------------------------------------------------------
          RMS gradient        0.0176463297            0.0001000000      NO
          MAX gradient        0.0238201952            0.0003000000      NO
          RMS step            0.0912957369            0.0020000000      NO
          MAX step            0.1794008611            0.0040000000      NO
          ........................................................
          Max(Bonds)      0.0363      Max(Angles)    4.77
          Max(Dihed)        0.00      Max(Improp)   10.28
          ---------------------------------------------------------------------

The optimization has not yet converged - more geometry cycles are needed


    ---------------------------------------------------------------------------
                         Redundant Internal Coordinates
                            (Angstroem and degrees)

        Definition                    Value    dE/dq     Step     New-Value
    ----------------------------------------------------------------------------
     1. B(Cl  1,C   0)                1.7700  0.022494 -0.0333    1.7367   
     2. B(Cl  2,C   0)                1.7774  0.023820 -0.0363    1.7412   
     3. B(H   3,C   0)                1.1118  0.016249 -0.0251    1.0867   
     4. A(Cl  1,C   0,H   3)          109.89 -0.001297    3.44    113.33   
     5. A(Cl  2,C   0,H   3)          109.04 -0.013299    3.92    112.96   
     6. A(Cl  1,C   0,Cl  2)          110.35 -0.013606    4.77    115.12   
     7. I(Cl  1,H   3,Cl  2,C   0)    -53.65 -0.021878   10.28    -43.38   
    ----------------------------------------------------------------------------

         *************************************************************
         *                GEOMETRY OPTIMIZATION CYCLE   2            *
         *************************************************************
---------------------------------
CARTESIAN COORDINATES (ANGSTROEM)
---------------------------------
  C      0.001201    0.185139    0.274755
  Cl     1.466333   -0.681252   -0.069875
  Cl    -1.462912   -0.692976   -0.067153
  H     -0.004622    1.190089   -0.138727

----------------------------
CARTESIAN COORDINATES (A.U.)
----------------------------
  NO LB      ZA    FRAG     MASS         X           Y           Z
   0 C     6.0000    0    12.011    0.002270    0.349861    0.519211
   1 Cl   17.0000    0    35.453    2.770967   -1.287380   -0.132044
   2 Cl   17.0000    0    35.453   -2.764503   -1.309534   -0.126900
   3 H     1.0000    0     1.008   -0.008735    2.248943   -0.262157

--------------------------------
INTERNAL COORDINATES (ANGSTROEM)
--------------------------------
 C      0   0   0     0.000000000000     0.00000000     0.00000000
 Cl     1   0   0     1.736667235975     0.00000000     0.00000000
 Cl     1   2   0     1.741152536291   114.76152824     0.00000000
 H      1   2   3     1.086704559190   112.97723378   228.80059260

---------------------------
INTERNAL COORDINATES (A.U.)
---------------------------
 C      0   0   0     0.000000000000     0.00000000     0.00000000
 Cl     1   0   0     3.281825461747     0.00000000     0.00000000
 Cl     1   2   0     3.290301450972   114.76152824     0.00000000
 H      1   2   3     2.053574005353   112.97723378   228.80059260

------------------------------------------------------------------------------
                   ___                                                        
                  /   \      - P O W E R E D   B Y -                         
                 /     \                                                     
                 |  |  |   _    _      __       _____    __    __             
                 |  |  |  | |  | |    /  \     |  _  \  |  |  /  |          
                  \  \/   | |  | |   /    \    | | | |  |  | /  /          
                 / \  \   | |__| |  /  /\  \   | |_| |  |  |/  /          
                |  |  |   |  __  | /  /__\  \  |    /   |      \           
                |  |  |   | |  | | |   __   |  |    \   |  |\   \          
                \     /   | |  | | |  |  |  |  | |\  \  |  | \   \       
                 \___/    |_|  |_| |__|  |__|  |_| \__\ |__|  \__/        
                                                                              
                      - O R C A' S   B I G   F R I E N D -                    
                                      &                                       
                       - I N T E G R A L  F E E D E R -                       
                                                                              
 v1 FN, 2020, v2 2021                                                         
------------------------------------------------------------------------------


Reading SHARK input file C-Cl-Cl-H_radical_opt.SHARKINP.tmp ... ok
----------------------
SHARK INTEGRAL PACKAGE
----------------------

Number of atoms                             ...      4
Number of basis functions                   ...    240
Number of shells                            ...    102
Maximum angular momentum                    ...      3
Integral batch strategy                     ... SHARK/LIBINT Hybrid
RI-J (if used) integral strategy            ... SPLIT-RIJ (Revised 2003 algorithm where possible)
Printlevel                                  ...      1
Contraction scheme used                     ... PARTIAL GENERAL contraction
Coulomb Range Separation                    ... NOT USED
Exchange Range Separation                   ... NOT USED
Finite Nucleus Model                        ... NOT USED
Auxiliary Coulomb fitting basis             ... NOT available
Auxiliary J/K fitting basis                 ... NOT available
Auxiliary Correlation fitting basis         ... NOT available
Auxiliary 'external' fitting basis          ... NOT available
Integral threshold                          ...     2.500000e-11
Primitive cut-off                           ...     2.500000e-12
Primitive pair pre-selection threshold      ...     2.500000e-12

Calculating pre-screening integrals         ... done (  0.0 sec) Dimension = 102
Calculating pre-screening integrals (ORCA)  ... done (  0.1 sec) Dimension = 76
Organizing shell pair data                  ... done (  0.0 sec)
Shell pair information
Total number of shell pairs                 ...      5253
Shell pairs after pre-screening             ...      4075
Total number of primitive shell pairs       ...      6473
Primitive shell pairs kept                  ...      4700
          la=0 lb=0:   1022 shell pairs
          la=1 lb=0:   1184 shell pairs
          la=1 lb=1:    350 shell pairs
          la=2 lb=0:    699 shell pairs
          la=2 lb=1:    402 shell pairs
          la=2 lb=2:    125 shell pairs
          la=3 lb=0:    155 shell pairs
          la=3 lb=1:     84 shell pairs
          la=3 lb=2:     48 shell pairs
          la=3 lb=3:      6 shell pairs

Calculating one electron integrals          ... done (  0.0 sec)
Calculating Nuclear repulsion               ... done (  0.0 sec) ENN=    124.763778077160 Eh

SHARK setup successfully completed in   0.3 seconds

Maximum memory used throughout the entire GTOINT-calculation: 39.7 MB

Diagonalization of the overlap matrix:
Smallest eigenvalue                        ... 7.691e-05
Time for diagonalization                   ...    0.011 sec
Threshold for overlap eigenvalues          ... 1.000e-08
Number of eigenvalues below threshold      ... 0
Time for construction of square roots      ...    0.006 sec
Total time needed                          ...    0.017 sec

-------------------
DFT GRID GENERATION
-------------------

General Integration Accuracy     IntAcc      ... 4.388
Radial Grid Type                 RadialGrid  ... OptM3 with GC (2021)
Angular Grid (max. ang.)         AngularGrid ... 4 (Lebedev-302)
Angular grid pruning method      GridPruning ... 4 (adaptive)
Weight generation scheme         WeightScheme... Becke
Basis function cutoff            BFCut       ... 1.0000e-11
Integration weight cutoff        WCut        ... 1.0000e-14
Angular grids for H and He will be reduced by one unit
Partially contracted basis set               ... off
Rotationally invariant grid construction     ... off

Total number of grid points                  ...    25297
Total number of batches                      ...      397
Average number of points per batch           ...       63
Average number of grid points per atom       ...     6324
Time for grid setup =    0.286 sec

--------------
SCF ITERATIONS
--------------
ITER       Energy         Delta-E        Max-DP      RMS-DP      [F,P]     Damp
               ***  Starting incremental Fock matrix formation  ***
  0   -958.7539031390   0.000000000000 0.00239084  0.00006221  0.0152100 0.7000
  1   -958.7549194548  -0.001016315886 0.00236747  0.00005828  0.0114720 0.7000
                               ***Turning on DIIS***
  2   -958.7557274156  -0.000807960719 0.00684529  0.00015576  0.0084467 0.0000
  3   -958.7578420782  -0.002114662620 0.00216790  0.00002965  0.0019403 0.0000
  4   -958.7579056584  -0.000063580253 0.00166230  0.00002235  0.0008401 0.0000
  5   -958.7579270127  -0.000021354226 0.00048621  0.00000678  0.0004301 0.0000
  6   -958.7579302971  -0.000003284466 0.00012645  0.00000247  0.0001261 0.0000
  7   -958.7579307058  -0.000000408650 0.00005464  0.00000081  0.0000477 0.0000
  8   -958.7579307685  -0.000000062737 0.00002176  0.00000037  0.0000128 0.0000
  9   -958.7579307737  -0.000000005138 0.00000670  0.00000014  0.0000059 0.0000
 10   -958.7579307750  -0.000000001305 0.00000252  0.00000004  0.0000017 0.0000
                            ***DIIS convergence achieved***

               *****************************************************
               *                     SUCCESS                       *
               *           SCF CONVERGED AFTER  11 CYCLES          *
               *****************************************************

Total Energy       :         -958.75793078 Eh          -26089.12964 eV
  Last Energy change         ...   -1.1494e-10  Tolerance :   1.0000e-08
  Last MAX-Density change    ...    2.0354e-06  Tolerance :   1.0000e-07
             **** THE GBW FILE WAS UPDATED (C-Cl-Cl-H_radical_opt.gbw) ****
             **** DENSITY C-Cl-Cl-H_radical_opt.scfp WAS UPDATED ****
             **** ENERGY FILE WAS UPDATED (C-Cl-Cl-H_radical_opt.en.tmp) ****
----------------------
UHF SPIN CONTAMINATION
----------------------

Warning: in a DFT calculation there is little theoretical justification to 
         calculate <S**2> as in Hartree-Fock theory. We will do it anyways
         but you should keep in mind that the values have only limited relevance

Expectation value of <S**2>     :     0.755227
Ideal value S*(S+1) for S=0.5   :     0.750000
Deviation                       :     0.005227

             **** THE GBW FILE WAS UPDATED (C-Cl-Cl-H_radical_opt.gbw) ****
             **** DENSITY C-Cl-Cl-H_radical_opt.scfp WAS UPDATED ****
Total SCF time: 0 days 0 hours 1 min 2 sec 

Maximum memory used throughout the entire SCF-calculation: 264.8 MB

-------------------------   --------------------
FINAL SINGLE POINT ENERGY      -958.757930775072
-------------------------   --------------------

------------------------------------------------------------------------------
                         ORCA SCF GRADIENT CALCULATION
------------------------------------------------------------------------------

Gradient of the Kohn-Sham DFT energy:
Kohn-Sham wavefunction type      ... UKS
Hartree-Fock exchange scaling    ...    0.250
Number of operators              ...    2
Number of atoms                  ...    4
Basis set dimensions             ...  202
Integral neglect threshold       ... 2.5e-11
Integral primitive cutoff        ... 2.5e-12
SHARK Integral package           ... ON

Nuc. rep. gradient       (SHARK) ... done (  0.0 sec)
HCore & Overlap gradient (SHARK) ... done (  0.1 sec)
Two-Electron gradient    (SHARK) ... done ( 20.2 sec)
Exchange-correlation gradient    ... done

------------------
CARTESIAN GRADIENT
------------------

   1   C   :    0.001152985    0.017405595    0.020647234
   2   Cl  :    0.010708877   -0.008258649   -0.007002718
   3   Cl  :   -0.011811647   -0.008977677   -0.007233498
   4   H   :   -0.000050216   -0.000169269   -0.006411018

Difference to translation invariance:
           :   -0.0000000000   -0.0000000000   -0.0000000000

Difference to rotation invariance:
           :   -0.0000179856    0.0000010728    0.0000035503

Norm of the cartesian gradient     ...    0.0357223363
RMS gradient                       ...    0.0103121502
MAX gradient                       ...    0.0206472341

-------
TIMINGS
-------

Total SCF gradient time            ...       21.753 sec

One electron gradient       ....       0.075 sec  (  0.3%)
Two electron gradient       ....      20.202 sec  ( 92.9%)
XC gradient                 ....       1.353 sec  (  6.2%)

Maximum memory used throughout the entire SCFGRAD-calculation: 63.9 MB
------------------------------------------------------------------------------
                         ORCA GEOMETRY RELAXATION STEP
------------------------------------------------------------------------------

Reading the OPT-File                    .... done
Getting information on internals        .... done
Copying old internal coords+grads       .... done
Making the new internal coordinates     .... (new redundants).... done
Validating the new internal coordinates .... (new redundants).... done
Calculating the B-matrix                .... done
Calculating the G,G- and P matrices     .... done
Transforming gradient to internals      .... done
Projecting the internal gradient        .... done
Number of atoms                         ....   4
Number of internal coordinates          ....   7
Current Energy                          ....  -958.757930775 Eh
Current gradient norm                   ....     0.035722336 Eh/bohr
Maximum allowed component of the step   ....  0.300
Current trust radius                    ....  0.300
Updating the Hessian (BFGS)             .... done
Forming the augmented Hessian           .... done
Diagonalizing the augmented Hessian     .... done
Last element of RFO vector              ....  0.967975657
Lowest eigenvalues of augmented Hessian:
 -0.005883158  0.073792552  0.263011070  0.328992236  0.343090458
Length of the computed step             ....  0.259349576
The final length of the internal step   ....  0.259349576
Converting the step to cartesian space:
 Initial RMS(Int)=    0.0980249257
Transforming coordinates:
 Iter   0:  RMS(Cart)=    0.0546295799 RMS(Int)=    0.0972789706
 Iter   1:  RMS(Cart)=    0.0048363250 RMS(Int)=    0.0063226934
 Iter   2:  RMS(Cart)=    0.0004133153 RMS(Int)=    0.0005520234
 Iter   3:  RMS(Cart)=    0.0000527094 RMS(Int)=    0.0000741827
 Iter   4:  RMS(Cart)=    0.0000042723 RMS(Int)=    0.0000060169
 Iter   5:  RMS(Cart)=    0.0000005883 RMS(Int)=    0.0000008122
 Iter   6:  RMS(Cart)=    0.0000000469 RMS(Int)=    0.0000000673
done
Storing new coordinates                 .... done

                                .--------------------.
          ----------------------|Geometry convergence|-------------------------
          Item                value                   Tolerance       Converged
          ---------------------------------------------------------------------
          Energy change      -0.0074676509            0.0000050000      NO
          RMS gradient        0.0097638704            0.0001000000      NO
          MAX gradient        0.0158807727            0.0003000000      NO
          RMS step            0.0980249257            0.0020000000      NO
          MAX step            0.1920928601            0.0040000000      NO
          ........................................................
          Max(Bonds)      0.0508      Max(Angles)    4.29
          Max(Dihed)        0.00      Max(Improp)   11.01
          ---------------------------------------------------------------------

The optimization has not yet converged - more geometry cycles are needed


    ---------------------------------------------------------------------------
                         Redundant Internal Coordinates
                            (Angstroem and degrees)

        Definition                    Value    dE/dq     Step     New-Value
    ----------------------------------------------------------------------------
     1. B(Cl  1,C   0)                1.7367  0.014545 -0.0454    1.6913   
     2. B(Cl  2,C   0)                1.7412  0.015881 -0.0508    1.6903   
     3. B(H   3,C   0)                1.0867  0.002282 -0.0084    1.0783   
     4. A(Cl  1,C   0,H   3)          112.98 -0.000938    3.50    116.48   
     5. A(Cl  2,C   0,H   3)          112.78 -0.005682    3.71    116.49   
     6. A(Cl  1,C   0,Cl  2)          114.76 -0.005022    4.29    119.05   
     7. I(Cl  1,H   3,Cl  2,C   0)    -43.02 -0.011832   11.01    -32.01   
    ----------------------------------------------------------------------------

         *************************************************************
         *                GEOMETRY OPTIMIZATION CYCLE   3            *
         *************************************************************
---------------------------------
CARTESIAN COORDINATES (ANGSTROEM)
---------------------------------
  C     -0.001357    0.158719    0.193665
  Cl     1.453252   -0.670198   -0.045935
  Cl    -1.448609   -0.682011   -0.042688
  H     -0.003286    1.194489   -0.106043

----------------------------
CARTESIAN COORDINATES (A.U.)
----------------------------
  NO LB      ZA    FRAG     MASS         X           Y           Z
   0 C     6.0000    0    12.011   -0.002564    0.299936    0.365974
   1 Cl   17.0000    0    35.453    2.746248   -1.266490   -0.086804
   2 Cl   17.0000    0    35.453   -2.737475   -1.288814   -0.080668
   3 H     1.0000    0     1.008   -0.006209    2.257257   -0.200392

--------------------------------
INTERNAL COORDINATES (ANGSTROEM)
--------------------------------
 C      0   0   0     0.000000000000     0.00000000     0.00000000
 Cl     1   0   0     1.691271481756     0.00000000     0.00000000
 Cl     1   2   0     1.690333951662   118.21650166     0.00000000
 H      1   2   3     1.078261375185   115.65565235   216.06304785

---------------------------
INTERNAL COORDINATES (A.U.)
---------------------------
 C      0   0   0     0.000000000000     0.00000000     0.00000000
 Cl     1   0   0     3.196039918630     0.00000000     0.00000000
 Cl     1   2   0     3.194268243510   118.21650166     0.00000000
 H      1   2   3     2.037618699885   115.65565235   216.06304785

------------------------------------------------------------------------------
                   ___                                                        
                  /   \      - P O W E R E D   B Y -                         
                 /     \                                                     
                 |  |  |   _    _      __       _____    __    __             
                 |  |  |  | |  | |    /  \     |  _  \  |  |  /  |          
                  \  \/   | |  | |   /    \    | | | |  |  | /  /          
                 / \  \   | |__| |  /  /\  \   | |_| |  |  |/  /          
                |  |  |   |  __  | /  /__\  \  |    /   |      \           
                |  |  |   | |  | | |   __   |  |    \   |  |\   \          
                \     /   | |  | | |  |  |  |  | |\  \  |  | \   \       
                 \___/    |_|  |_| |__|  |__|  |_| \__\ |__|  \__/        
                                                                              
                      - O R C A' S   B I G   F R I E N D -                    
                                      &                                       
                       - I N T E G R A L  F E E D E R -                       
                                                                              
 v1 FN, 2020, v2 2021                                                         
------------------------------------------------------------------------------


Reading SHARK input file C-Cl-Cl-H_radical_opt.SHARKINP.tmp ... ok
----------------------
SHARK INTEGRAL PACKAGE
----------------------

Number of atoms                             ...      4
Number of basis functions                   ...    240
Number of shells                            ...    102
Maximum angular momentum                    ...      3
Integral batch strategy                     ... SHARK/LIBINT Hybrid
RI-J (if used) integral strategy            ... SPLIT-RIJ (Revised 2003 algorithm where possible)
Printlevel                                  ...      1
Contraction scheme used                     ... PARTIAL GENERAL contraction
Coulomb Range Separation                    ... NOT USED
Exchange Range Separation                   ... NOT USED
Finite Nucleus Model                        ... NOT USED
Auxiliary Coulomb fitting basis             ... NOT available
Auxiliary J/K fitting basis                 ... NOT available
Auxiliary Correlation fitting basis         ... NOT available
Auxiliary 'external' fitting basis          ... NOT available
Integral threshold                          ...     2.500000e-11
Primitive cut-off                           ...     2.500000e-12
[...]
Calc. nucleus orbit integrals (SHARK)       ... done

------------------------------------------------------------------------------
                           ORCA CP-SCF CALCULATION
------------------------------------------------------------------------------

Input orbitals are from        ... C-Cl-Cl-H_radical_EPR.gbw
Input Perturbation             ... C-Cl-Cl-H_radical_EPR.pin.tmp
Wavefunction output            ... C-Cl-Cl-H_radical_EPR.pout.tmp
Perturbation mode              ... Imaginary perturbation
Solver                         ... POPLE
Max. number of iterations      ... 64
Convergence tolerance          ... 1.000e-03
Integral handling              ... Direct
DFT GridXC                     ... 1
Number of perturbations        ... 3
Number of operators            ... 2
Orbital ranges used for CP-SCF:
 Operator 0:  Orbitals   0... 20  to  21...201
 Operator 1:  Orbitals   0... 19  to  20...201
Variables per perturbation     ... 7441
DFT calculation                         ... on
XC functional terms                     ... off
Hybrid DFT                              ... on
   Exchange mixing (SCF)                ...  0.250
   Exchange mixing (CP-SCF)             ...  0.250
   GGA exch. scaling(SCF)               ...  0.750
   GGA exch. scaling (CP-SCF)           ...  0.750
   GGA corr. scaling (SCF)              ...  1.000
   GGA corr. scaling (CP-SCF)           ...  1.000

CP-SCF GRID
-----------

General Integration Accuracy     IntAcc      ... 3.467
Radial Grid Type                 RadialGrid  ... OptM3 with GC (2021)
Angular Grid (max. ang.)         AngularGrid ... 1 (Lebedev-50)
Angular grid pruning method      GridPruning ... 4 (adaptive)
Weight generation scheme         WeightScheme... Becke
Basis function cutoff            BFCut       ... 1.0000e-11
Integration weight cutoff        WCut        ... 1.0000e-14
Angular grids for H and He will be reduced by one unit
Partially contracted basis set               ... off
Rotationally invariant grid construction     ... off

Total number of grid points                  ...     4019
Total number of batches                      ...       64
Average number of points per batch           ...       62
Average number of grid points per atom       ...     1005

Memory available               ... 871.2 MB
Memory needed per perturbation ...   8.6 MB
Perturbations treated per batch... 3
Number of batches              ... 1
     CP-SCF ITERATION   0:   1.3869e+00 (  14.1 sec   0/  3 done)
     CP-SCF ITERATION   1:   9.0572e-02 (  13.7 sec   0/  3 done)
     CP-SCF ITERATION   2:   9.2911e-03 (  13.8 sec   1/  3 done)
     CP-SCF ITERATION   3:   8.8151e-04 (  11.5 sec   3/  3 done)
                    *** THE CP-SCF HAS CONVERGED ***

Forming final perturbed densities           ... done
Transforming perturbed density to AO basis  ... done

 Raw HFC matrix (all values in MHz): 
 -----------------------------------
               110.6012               0.0018               0.2192
                 0.0017             111.3580               4.1624
                 0.2190               4.2142             330.0150

 A(FC)         183.2008             183.2008             183.2008
 A(SD)         -73.3425             -73.5486             146.8911
 A(ORB+DIA)      0.7426               1.6256               0.0035    A(PC) =   0.7906
 A(ORB)          0.7408               1.6243               0.0036    A(PC) =   0.7896
 A(DIA)          0.0018               0.0013              -0.0001    A(PC) =   0.0010
             ----------           ----------           ----------
 A(Tot)        110.6009             111.2778             330.0954    A(iso)=  183.9914
 Orientation: 
  X           0.9999937           -0.0034131            0.0009985
  Y           0.0033935            0.9998132            0.0190257
  Z          -0.0010633           -0.0190222            0.9998185

Notes:  (1) The A matrix conforms to the "SAI" spin Hamiltonian convention.
        (2) Tensor is right-handed.

 -----------------------------------------------------------
 Nucleus   3H : A:ISTP=    1 I=  0.5 P=533.5514 MHz/au**3
                Q:ISTP=    2 I=  1.0 Q=  0.0029 barn     
 -----------------------------------------------------------
 Solving for nuclear perturbation:
Forming RHS of the CP-SCF equations         ... 
Calc. nucleus orbit integrals (SHARK)       ... done

------------------------------------------------------------------------------
                           ORCA CP-SCF CALCULATION
------------------------------------------------------------------------------

Input orbitals are from        ... C-Cl-Cl-H_radical_EPR.gbw
Input Perturbation             ... C-Cl-Cl-H_radical_EPR.pin.tmp
Wavefunction output            ... C-Cl-Cl-H_radical_EPR.pout.tmp
Perturbation mode              ... Imaginary perturbation
Solver                         ... POPLE
Max. number of iterations      ... 64
Convergence tolerance          ... 1.000e-03
Integral handling              ... Direct
DFT GridXC                     ... 1
Number of perturbations        ... 3
Number of operators            ... 2
Orbital ranges used for CP-SCF:
 Operator 0:  Orbitals   0... 20  to  21...201
 Operator 1:  Orbitals   0... 19  to  20...201
Variables per perturbation     ... 7441
DFT calculation                         ... on
XC functional terms                     ... off
Hybrid DFT                              ... on
   Exchange mixing (SCF)                ...  0.250
   Exchange mixing (CP-SCF)             ...  0.250
   GGA exch. scaling(SCF)               ...  0.750
   GGA exch. scaling (CP-SCF)           ...  0.750
   GGA corr. scaling (SCF)              ...  1.000
   GGA corr. scaling (CP-SCF)           ...  1.000

CP-SCF GRID
-----------

General Integration Accuracy     IntAcc      ... 3.467
Radial Grid Type                 RadialGrid  ... OptM3 with GC (2021)
Angular Grid (max. ang.)         AngularGrid ... 1 (Lebedev-50)
Angular grid pruning method      GridPruning ... 4 (adaptive)
Weight generation scheme         WeightScheme... Becke
Basis function cutoff            BFCut       ... 1.0000e-11
Integration weight cutoff        WCut        ... 1.0000e-14
Angular grids for H and He will be reduced by one unit
Partially contracted basis set               ... off
Rotationally invariant grid construction     ... off

Total number of grid points                  ...     4019
Total number of batches                      ...       64
Average number of points per batch           ...       62
Average number of grid points per atom       ...     1005

Memory available               ... 870.9 MB
Memory needed per perturbation ...   8.6 MB
Perturbations treated per batch... 3
Number of batches              ... 1
     CP-SCF ITERATION   0:   8.4923e-02 (  13.1 sec   0/  3 done)
     CP-SCF ITERATION   1:   3.8389e-03 (  13.6 sec   0/  3 done)
     CP-SCF ITERATION   2:   3.9646e-04 (  13.6 sec   3/  3 done)
                    *** THE CP-SCF HAS CONVERGED ***

Forming final perturbed densities           ... done
Transforming perturbed density to AO basis  ... done

 Raw HFC matrix (all values in MHz): 
 -----------------------------------
               -87.2173              -0.2696               0.0643
                -0.2697             -16.6456              -6.8449
                 0.0639              -6.7539             -50.9696

 A(FC)         -51.7776             -51.7776             -51.7776
 A(SD)          36.0327              -0.4899             -35.5428
 A(ORB+DIA)      0.3981               0.0000               0.1020    A(PC) =   0.1667
 A(ORB)          0.3927               0.0030               0.1020    A(PC) =   0.1659
 A(DIA)          0.0054              -0.0029               0.0001    A(PC) =   0.0008
             ----------           ----------           ----------
 A(Tot)        -15.3468             -52.2674             -87.2184    A(iso)=  -51.6109
 Orientation: 
  X          -0.0038527            0.0003504            0.9999925
  Y           0.9820434            0.1886184            0.0037174
  Z          -0.1886157            0.9820504           -0.0010708

Notes:  (1) The A matrix conforms to the "SAI" spin Hamiltonian convention.
        (2) Tensor is right-handed.

 -----------------------------------------------------------
 Nucleus   1Cl: A:ISTP=   35 I=  1.5 P= 52.3376 MHz/au**3
                Q:ISTP=   35 I=  1.5 Q= -0.0817 barn     
 -----------------------------------------------------------
 Solving for nuclear perturbation:
Forming RHS of the CP-SCF equations         ... 
Calc. nucleus orbit integrals (SHARK)       ... done

------------------------------------------------------------------------------
                           ORCA CP-SCF CALCULATION
------------------------------------------------------------------------------

Input orbitals are from        ... C-Cl-Cl-H_radical_EPR.gbw
Input Perturbation             ... C-Cl-Cl-H_radical_EPR.pin.tmp
Wavefunction output            ... C-Cl-Cl-H_radical_EPR.pout.tmp
Perturbation mode              ... Imaginary perturbation
Solver                         ... POPLE
Max. number of iterations      ... 64
Convergence tolerance          ... 1.000e-03
Integral handling              ... Direct
DFT GridXC                     ... 1
Number of perturbations        ... 3
Number of operators            ... 2
Orbital ranges used for CP-SCF:
 Operator 0:  Orbitals   0... 20  to  21...201
 Operator 1:  Orbitals   0... 19  to  20...201
Variables per perturbation     ... 7441
DFT calculation                         ... on
XC functional terms                     ... off
Hybrid DFT                              ... on
   Exchange mixing (SCF)                ...  0.250
   Exchange mixing (CP-SCF)             ...  0.250
   GGA exch. scaling(SCF)               ...  0.750
   GGA exch. scaling (CP-SCF)           ...  0.750
   GGA corr. scaling (SCF)              ...  1.000
   GGA corr. scaling (CP-SCF)           ...  1.000

CP-SCF GRID
-----------

General Integration Accuracy     IntAcc      ... 3.467
Radial Grid Type                 RadialGrid  ... OptM3 with GC (2021)
Angular Grid (max. ang.)         AngularGrid ... 1 (Lebedev-50)
Angular grid pruning method      GridPruning ... 4 (adaptive)
Weight generation scheme         WeightScheme... Becke
Basis function cutoff            BFCut       ... 1.0000e-11
Integration weight cutoff        WCut        ... 1.0000e-14
Angular grids for H and He will be reduced by one unit
Partially contracted basis set               ... off
Rotationally invariant grid construction     ... off

Total number of grid points                  ...     4019
Total number of batches                      ...       64
Average number of points per batch           ...       62
Average number of grid points per atom       ...     1005

Memory available               ... 870.9 MB
Memory needed per perturbation ...   8.6 MB
Perturbations treated per batch... 3
Number of batches              ... 1
     CP-SCF ITERATION   0:   5.3193e+00 (  14.4 sec   0/  3 done)
     CP-SCF ITERATION   1:   4.3490e-01 (  13.0 sec   0/  3 done)
     CP-SCF ITERATION   2:   5.1131e-02 (  13.4 sec   0/  3 done)
     CP-SCF ITERATION   3:   5.5784e-03 (  13.4 sec   0/  3 done)
     CP-SCF ITERATION   4:   5.7473e-04 (  13.4 sec   3/  3 done)
                    *** THE CP-SCF HAS CONVERGED ***

Forming final perturbed densities           ... done
Transforming perturbed density to AO basis  ... done

 Raw HFC matrix (all values in MHz): 
 -----------------------------------
               -19.1791               3.8018              -6.4133
                 3.6141             -13.0461               4.1730
                -6.4241               4.1693              54.8869

 A(FC)           7.4838               7.4838               7.4838
 A(SD)         -18.5120             -29.8409              48.3528
 A(ORB+DIA)     -0.2880               0.6808              -0.1825    A(PC) =   0.0701
 A(ORB)         -0.2880               0.6807              -0.1824    A(PC) =   0.0701
 A(DIA)          0.0000               0.0002              -0.0000    A(PC) =   0.0001
             ----------           ----------           ----------
 A(Tot)        -11.3161             -21.6762              55.6541    A(iso)=    7.5539
 Orientation: 
  X           0.4406502           -0.8938861           -0.0824323
  Y           0.8975657            0.4372747            0.0562737
  Z          -0.0142568           -0.0987854            0.9950066

Notes:  (1) The A matrix conforms to the "SAI" spin Hamiltonian convention.
        (2) Tensor is right-handed.

 -----------------------------------------------------------
 Nucleus   2Cl: A:ISTP=   35 I=  1.5 P= 52.3376 MHz/au**3
                Q:ISTP=   35 I=  1.5 Q= -0.0817 barn     
 -----------------------------------------------------------
 Solving for nuclear perturbation:
Forming RHS of the CP-SCF equations         ... 
Calc. nucleus orbit integrals (SHARK)       ... done

------------------------------------------------------------------------------
                           ORCA CP-SCF CALCULATION
------------------------------------------------------------------------------

Input orbitals are from        ... C-Cl-Cl-H_radical_EPR.gbw
Input Perturbation             ... C-Cl-Cl-H_radical_EPR.pin.tmp
Wavefunction output            ... C-Cl-Cl-H_radical_EPR.pout.tmp
Perturbation mode              ... Imaginary perturbation
Solver                         ... POPLE
Max. number of iterations      ... 64
Convergence tolerance          ... 1.000e-03
Integral handling              ... Direct
DFT GridXC                     ... 1
Number of perturbations        ... 3
Number of operators            ... 2
Orbital ranges used for CP-SCF:
 Operator 0:  Orbitals   0... 20  to  21...201
 Operator 1:  Orbitals   0... 19  to  20...201
Variables per perturbation     ... 7441
DFT calculation                         ... on
XC functional terms                     ... off
Hybrid DFT                              ... on
   Exchange mixing (SCF)                ...  0.250
   Exchange mixing (CP-SCF)             ...  0.250
   GGA exch. scaling(SCF)               ...  0.750
   GGA exch. scaling (CP-SCF)           ...  0.750
   GGA corr. scaling (SCF)              ...  1.000
   GGA corr. scaling (CP-SCF)           ...  1.000

CP-SCF GRID
-----------

General Integration Accuracy     IntAcc      ... 3.467
Radial Grid Type                 RadialGrid  ... OptM3 with GC (2021)
Angular Grid (max. ang.)         AngularGrid ... 1 (Lebedev-50)
Angular grid pruning method      GridPruning ... 4 (adaptive)
Weight generation scheme         WeightScheme... Becke
Basis function cutoff            BFCut       ... 1.0000e-11
Integration weight cutoff        WCut        ... 1.0000e-14
Angular grids for H and He will be reduced by one unit
Partially contracted basis set               ... off
Rotationally invariant grid construction     ... off

Total number of grid points                  ...     4019
Total number of batches                      ...       64
Average number of points per batch           ...       62
Average number of grid points per atom       ...     1005

Memory available               ... 870.9 MB
Memory needed per perturbation ...   8.6 MB
Perturbations treated per batch... 3
Number of batches              ... 1
     CP-SCF ITERATION   0:   5.3123e+00 (  14.2 sec   0/  3 done)
     CP-SCF ITERATION   1:   4.3443e-01 (  13.2 sec   0/  3 done)
     CP-SCF ITERATION   2:   5.1062e-02 (  13.2 sec   0/  3 done)
     CP-SCF ITERATION   3:   5.5798e-03 (  13.4 sec   0/  3 done)
     CP-SCF ITERATION   4:   5.7371e-04 (  13.2 sec   3/  3 done)
                    *** THE CP-SCF HAS CONVERGED ***

Forming final perturbed densities           ... done
Transforming perturbed density to AO basis  ... done

 Raw HFC matrix (all values in MHz): 
 -----------------------------------
               -19.0955              -3.8378               6.5407
                -3.6501             -13.1005               4.2286
                 6.5515               4.2253              54.8579

 A(FC)           7.4838               7.4838               7.4838
 A(SD)         -18.5113             -29.8403              48.3516
 A(ORB+DIA)     -0.2879               0.6808              -0.1825    A(PC) =   0.0701
 A(ORB)         -0.2879               0.6806              -0.1825    A(PC) =   0.0701
 A(DIA)          0.0000               0.0002              -0.0000    A(PC) =   0.0001
             ----------           ----------           ----------
 A(Tot)        -11.3153             -21.6757              55.6529    A(iso)=    7.5540
 Orientation: 
  X           0.4472136            0.8904601            0.0841472
  Y          -0.8943280            0.4437798            0.0568932
  Z           0.0133183           -0.1006986            0.9948278

Notes:  (1) The A matrix conforms to the "SAI" spin Hamiltonian convention.
        (2) Tensor is right-handed.


--------------------------------------------------------------------------------
----------------------------------------------------------------------------
                           ORCA EULER ANGLE PROGRAM
----------------------------------------------------------------------------

Only g-tensor available        -->  using g-tensor as reference tensor

Reference tensor               ...  g

g-tensor ordering              ...  |g_min> --> |gx>
                                    |g_mid> --> |gy>
                                    |g_max> --> |gz>

A- and EFG-tensor ordering     ...  the axes |Ax>, |Qx>, |Ay>, etc. are assigned
                                    such that the Euler rotation is minimal. You
                                    can find the respective eigenvalues as Ax,
                                    EFGx, Ay, etc. in the tables below.
                                    The relation of |Ax>, |Ay>,  etc. to Amin, Amid, etc.
                                    (as printed in the ORCA EPR/NMR CALCULATION Output)
                                    is obtained in the detailed printout.

Euler rotation around          ...  z - y - z
   First rotation              -->  by alpha around z
   Second rotation             -->  by beta around y'
   Third rotation              -->  by gamma around z''
   Positive / Negative angle   -->  clockwise / counterclockwise rotation

Plot EFG-tensors                    (-)
Plot HFC-tensors                    (-)
Detailed Printout                   (-)

-------------------------------------------------------------------------
          Euler rotation of hyperfine tensor to g-tensor
-------------------------------------------------------------------------

-------------------------------------------------------------------
 Atom  |   Alpha    Beta    Gamma   |   Ax       Ay       Az 
       |          [degrees]         |           [MHz]         
-------------------------------------------------------------------
  0C      -64.3      0.1     64.3     330.10   110.60   111.28
  3H     -179.4      9.7    179.4     -52.27   -87.22   -15.35
  1Cl     -94.7     26.5     89.5      55.65   -21.68   -11.32
  2Cl      94.7     26.3    -89.5      55.65   -21.68   -11.32
-------------------------------------------------------------------


Maximum memory used throughout the entire EPRNMR-calculation: 170.7 MB

Timings for individual modules:

Sum of individual times         ...      459.485 sec (=   7.658 min)
GTO integral calculation        ...        0.375 sec (=   0.006 min)   0.1 %
Spin-Orbit-Coupling Matrices    ...       74.330 sec (=   1.239 min)  16.2 %
SCF iterations                  ...        9.876 sec (=   0.165 min)   2.1 %
EPR/NMR calculation             ...      374.904 sec (=   6.248 min)  81.6 %



                             ****ORCA TERMINATED NORMALLY****
TOTAL RUN TIME: 0 days 0 hours 17 minutes 37 seconds 329 msec

slurmID:    30883856
totalRuntime[s]:    1060.887556673
