
                                 *****************
                                 * O   R   C   A *
                                 *****************

                                            #,                                       
                                            ###                                      
                                            ####                                     
                                            #####                                    
                                            ######                                   
                                           ########,                                 
                                     ,,################,,,,,                         
                               ,,#################################,,                 
                          ,,##########################################,,             
                       ,#########################################, ''#####,          
                    ,#############################################,,   '####,        
                  ,##################################################,,,,####,       
                ,###########''''           ''''###############################       
              ,#####''   ,,,,##########,,,,          '''####'''          '####       
            ,##' ,,,,###########################,,,                        '##       
           ' ,,###''''                  '''############,,,                           
         ,,##''                                '''############,,,,        ,,,,,,###''
      ,#''                                            '''#######################'''  
     '                                                          ''''####''''         
             ,#######,   #######,   ,#######,      ##                                
            ,#'     '#,  ##    ##  ,#'     '#,    #''#        ######   ,####,        
            ##       ##  ##   ,#'  ##            #'  '#       #        #'  '#        
            ##       ##  #######   ##           ,######,      #####,   #    #        
            '#,     ,#'  ##    ##  '#,     ,#' ,#      #,         ##   #,  ,#        
             '#######'   ##     ##  '#######'  #'      '#     #####' # '####'        



                  #######################################################
                  #                        -***-                        #
                  #          Department of theory and spectroscopy      #
                  #    Directorship and core code : Frank Neese         #
                  #        Max Planck Institute fuer Kohlenforschung    #
                  #                Kaiser Wilhelm Platz 1               #
                  #                 D-45470 Muelheim/Ruhr               #
                  #                      Germany                        #
                  #                                                     #
                  #                  All rights reserved                #
                  #                        -***-                        #
                  #######################################################


                         Program Version 5.0.4 -  RELEASE  -


 With contributions from (in alphabetic order):
   Daniel Aravena         : Magnetic Suceptibility
   Michael Atanasov       : Ab Initio Ligand Field Theory (pilot matlab implementation)
   Alexander A. Auer      : GIAO ZORA, VPT2 properties, NMR spectrum
   Ute Becker             : Parallelization
   Giovanni Bistoni       : ED, misc. LED, open-shell LED, HFLD
   Martin Brehm           : Molecular dynamics
   Dmytro Bykov           : SCF Hessian
   Vijay G. Chilkuri      : MRCI spin determinant printing, contributions to CSF-ICE
   Dipayan Datta          : RHF DLPNO-CCSD density
   Achintya Kumar Dutta   : EOM-CC, STEOM-CC
   Dmitry Ganyushin       : Spin-Orbit,Spin-Spin,Magnetic field MRCI
   Miquel Garcia          : C-PCM and meta-GGA Hessian, CC/C-PCM, Gaussian charge scheme
   Yang Guo               : DLPNO-NEVPT2, F12-NEVPT2, CIM, IAO-localization
   Andreas Hansen         : Spin unrestricted coupled pair/coupled cluster methods
   Benjamin Helmich-Paris : MC-RPA, TRAH-SCF, COSX integrals
   Lee Huntington         : MR-EOM, pCC
   Robert Izsak           : Overlap fitted RIJCOSX, COSX-SCS-MP3, EOM
   Marcus Kettner         : VPT2
   Christian Kollmar      : KDIIS, OOCD, Brueckner-CCSD(T), CCSD density, CASPT2, CASPT2-K
   Simone Kossmann        : Meta GGA functionals, TD-DFT gradient, OOMP2, MP2 Hessian
   Martin Krupicka        : Initial AUTO-CI
   Lucas Lang             : DCDCAS
   Marvin Lechner         : AUTO-CI (C++ implementation), FIC-MRCC
   Dagmar Lenk            : GEPOL surface, SMD
   Dimitrios Liakos       : Extrapolation schemes; Compound Job, initial MDCI parallelization
   Dimitrios Manganas     : Further ROCIS development; embedding schemes
   Dimitrios Pantazis     : SARC Basis sets
   Anastasios Papadopoulos: AUTO-CI, single reference methods and gradients
   Taras Petrenko         : DFT Hessian,TD-DFT gradient, ASA, ECA, R-Raman, ABS, FL, XAS/XES, NRVS
   Peter Pinski           : DLPNO-MP2, DLPNO-MP2 Gradient
   Christoph Reimann      : Effective Core Potentials
   Marius Retegan         : Local ZFS, SOC
   Christoph Riplinger    : Optimizer, TS searches, QM/MM, DLPNO-CCSD(T), (RO)-DLPNO pert. Triples
   Tobias Risthaus        : Range-separated hybrids, TD-DFT gradient, RPA, STAB
   Michael Roemelt        : Original ROCIS implementation
   Masaaki Saitow         : Open-shell DLPNO-CCSD energy and density
   Barbara Sandhoefer     : DKH picture change effects
   Avijit Sen             : IP-ROCIS
   Kantharuban Sivalingam : CASSCF convergence, NEVPT2, FIC-MRCI
   Bernardo de Souza      : ESD, SOC TD-DFT
   Georgi Stoychev        : AutoAux, RI-MP2 NMR, DLPNO-MP2 response
   Willem Van den Heuvel  : Paramagnetic NMR
   Boris Wezisla          : Elementary symmetry handling
   Frank Wennmohs         : Technical directorship


 We gratefully acknowledge several colleagues who have allowed us to
 interface, adapt or use parts of their codes:
   Stefan Grimme, W. Hujo, H. Kruse, P. Pracht,  : VdW corrections, initial TS optimization,
                  C. Bannwarth, S. Ehlert          DFT functionals, gCP, sTDA/sTD-DF
   Ed Valeev, F. Pavosevic, A. Kumar             : LibInt (2-el integral package), F12 methods
   Garnet Chan, S. Sharma, J. Yang, R. Olivares  : DMRG
   Ulf Ekstrom                                   : XCFun DFT Library
   Mihaly Kallay                                 : mrcc  (arbitrary order and MRCC methods)
   Jiri Pittner, Ondrej Demel                    : Mk-CCSD
   Frank Weinhold                                : gennbo (NPA and NBO analysis)
   Christopher J. Cramer and Donald G. Truhlar   : smd solvation model
   Lars Goerigk                                  : TD-DFT with DH, B97 family of functionals
   V. Asgeirsson, H. Jonsson                     : NEB implementation
   FAccTs GmbH                                   : IRC, NEB, NEB-TS, DLPNO-Multilevel, CI-OPT
                                                   MM, QMMM, 2- and 3-layer-ONIOM, Crystal-QMMM,
                                                   LR-CPCM, SF, NACMEs, symmetry and pop. for TD-DFT,
                                                   nearIR, NL-DFT gradient (VV10), updates on ESD,
                                                   ML-optimized integration grids
   S Lehtola, MJT Oliveira, MAL Marques          : LibXC Library
   Liviu Ungur et al                             : ANISO software


 Your calculation uses the libint2 library for the computation of 2-el integrals
 For citations please refer to: http://libint.valeyev.net

 Your ORCA version has been built with support for libXC version: 5.1.0
 For citations please refer to: https://tddft.org/programs/libxc/

 This ORCA versions uses:
   CBLAS   interface :  Fast vector & matrix operations
   LAPACKE interface :  Fast linear algebra routines
   SCALAPACK package :  Parallel linear algebra routines
   Shared memory     :  Shared parallel matrices
   BLAS/LAPACK       :  OpenBLAS 0.3.15  USE64BITINT DYNAMIC_ARCH NO_AFFINITY SkylakeX SINGLE_THREADED
        Core in use  :  SkylakeX
   Copyright (c) 2011-2014, The OpenBLAS Project


================================================================================

----- Orbital basis set information -----
Your calculation utilizes the basis: aug-cc-pVTZ-J 
  Obtained from the EMSL Basis Set Exchange (bse.pnl.gov) Feb. 2017
  H, C-O : P. F. Provasi, G. A. Aucar, S. P. A. Sauer, J. Chem. Phys. 115, 1324 (2001)
           R. A. Kendall, T. H. Dunning, Jr., R. J. Harrison, J. Chem. Phys. 96, 6796 (1992)
           T. Enevoldsen, J. Oddershede, S. P. A. Sauer, Theor. Chem. Acc. 100, 275 (1998)
           T. H. Dunning, Jr., J. Chem. Phys. 90, 1007 (1989)
       B : P. F. Provasi, S. P. A. Sauer, J. Chem. Phys. 133, 054308 (2010)
           T. Enevoldsen, J. Oddershede, S. P. A. Sauer, Theor. Chem. Acc. 100, 275 (1998)
           T. H. Dunning, Jr., J. Chem. Phys. 90, 1007 (1989)
       F : R. A. Kendall, T. H. Dunning, Jr., R. J. Harrison, J. Chem. Phys. 96, 6796 (1992)
           T. Enevoldsen, J. Oddershede, S. P. A. Sauer, Theor. Chem. Acc. 100, 275 (1998)
           T. H. Dunning, Jr., J. Chem. Phys. 90, 1007 (1989)
           V. Barone, P. F. Provasi, J. E. Peralta, J. P. Snyder, S. P. A. Sauer, R. H. Contreras, J. Phys. Chem. A 107, 4748 (2003)
      Al : D. E. Woon, T. H. Dunning, Jr., J. Chem. Phys. 98, 1358 (1993)
           P. F. Provasi, S. P. A. Sauer, J. Chem. Phys. 133, 054308 (2010)
           T. Enevoldsen, J. Oddershede, S. P. A. Sauer, Theor. Chem. Acc. 100, 275 (1998)
      Si : D. E. Woon, T. H. Dunning, Jr., J. Chem. Phys. 98, 1358 (1993)
           P. F. Provasi, S. P. A. Sauer, J. Chem. Phys. 133, 054308 (2010)
           S. P. A. Sauer, W. T. Raynes, J. Chem. Phys. 113, 3121 (2000)
           S. P. A. Sauer, W. T. Raynes, R. A. Nicholls, J. Chem. Phys. 115, 5994 (2001)
   P, Cl : D. E. Woon, T. H. Dunning, Jr., J. Chem. Phys. 98, 1358 (1993)
           P. F. Provasi, S. P. A. Sauer, J. Chem. Phys. 133, 054308 (2010)
       S : D. E. Woon, T. H. Dunning, Jr., J. Chem. Phys. 98, 1358 (1993)
           P. F. Provasi, G. A. Aucar, S. P. A. Sauer, J. Chem. Phys. 115, 1324 (2001)
   Sc-Zn : E. D. Hedegård, J. Kongsted, S. P. A. Sauer, J. Chem. Theory Comput. 7, 4077 (2011)
           N. B. Balabanov, K. A. Peterson, J. Chem. Phys. 123, 64107 (2005)
      Se : Y. Yu. Rusakov, L. B. Krivdin, S. P. A. Sauer, E. P. Levanova, G. G. Levkovskaya, Magn. Res. Chem. 48, 44-52 (2010)

================================================================================
                                        WARNINGS
                       Please study these warnings very carefully!
================================================================================


WARNING: Geometry Optimization
  ===> : Switching off AutoStart
         For restart on a previous wavefunction, please use MOREAD

INFO   : the flag for use of the SHARK integral package has been found!



***************************************
The coordinates will be read from file: 
***************************************


================================================================================

----- Orbital basis set information -----
Your calculation utilizes the basis: aug-cc-pVTZ-J 
  Obtained from the EMSL Basis Set Exchange (bse.pnl.gov) Feb. 2017
  H, C-O : P. F. Provasi, G. A. Aucar, S. P. A. Sauer, J. Chem. Phys. 115, 1324 (2001)
           R. A. Kendall, T. H. Dunning, Jr., R. J. Harrison, J. Chem. Phys. 96, 6796 (1992)
           T. Enevoldsen, J. Oddershede, S. P. A. Sauer, Theor. Chem. Acc. 100, 275 (1998)
           T. H. Dunning, Jr., J. Chem. Phys. 90, 1007 (1989)
       B : P. F. Provasi, S. P. A. Sauer, J. Chem. Phys. 133, 054308 (2010)
           T. Enevoldsen, J. Oddershede, S. P. A. Sauer, Theor. Chem. Acc. 100, 275 (1998)
           T. H. Dunning, Jr., J. Chem. Phys. 90, 1007 (1989)
       F : R. A. Kendall, T. H. Dunning, Jr., R. J. Harrison, J. Chem. Phys. 96, 6796 (1992)
           T. Enevoldsen, J. Oddershede, S. P. A. Sauer, Theor. Chem. Acc. 100, 275 (1998)
           T. H. Dunning, Jr., J. Chem. Phys. 90, 1007 (1989)
           V. Barone, P. F. Provasi, J. E. Peralta, J. P. Snyder, S. P. A. Sauer, R. H. Contreras, J. Phys. Chem. A 107, 4748 (2003)
      Al : D. E. Woon, T. H. Dunning, Jr., J. Chem. Phys. 98, 1358 (1993)
           P. F. Provasi, S. P. A. Sauer, J. Chem. Phys. 133, 054308 (2010)
           T. Enevoldsen, J. Oddershede, S. P. A. Sauer, Theor. Chem. Acc. 100, 275 (1998)
      Si : D. E. Woon, T. H. Dunning, Jr., J. Chem. Phys. 98, 1358 (1993)
           P. F. Provasi, S. P. A. Sauer, J. Chem. Phys. 133, 054308 (2010)
           S. P. A. Sauer, W. T. Raynes, J. Chem. Phys. 113, 3121 (2000)
           S. P. A. Sauer, W. T. Raynes, R. A. Nicholls, J. Chem. Phys. 115, 5994 (2001)
   P, Cl : D. E. Woon, T. H. Dunning, Jr., J. Chem. Phys. 98, 1358 (1993)
           P. F. Provasi, S. P. A. Sauer, J. Chem. Phys. 133, 054308 (2010)
       S : D. E. Woon, T. H. Dunning, Jr., J. Chem. Phys. 98, 1358 (1993)
           P. F. Provasi, G. A. Aucar, S. P. A. Sauer, J. Chem. Phys. 115, 1324 (2001)
   Sc-Zn : E. D. Hedegård, J. Kongsted, S. P. A. Sauer, J. Chem. Theory Comput. 7, 4077 (2011)
           N. B. Balabanov, K. A. Peterson, J. Chem. Phys. 123, 64107 (2005)
      Se : Y. Yu. Rusakov, L. B. Krivdin, S. P. A. Sauer, E. P. Levanova, G. G. Levkovskaya, Magn. Res. Chem. 48, 44-52 (2010)

================================================================================
                                        WARNINGS
                       Please study these warnings very carefully!
================================================================================


INFO   : the flag for use of the SHARK integral package has been found!

================================================================================
                                       INPUT FILE
================================================================================
NAME = /beegfs/scratch/jdstates/Radical_Geometry/CX3_geometry_calcs/input_files/CX3_radical/C-F-H-H_radical_IN-PROGRESS/C-F-H-H_radical.inp
|  1> # Formula: C-F-H-H_radical
|  2> 
|  3> ! UKS NORI TightSCF PBE0 aug-cc-PVTZ-J xyzfile opt NOPOP
|  4> %base "C-F-H-H_radical_opt" 
|  5> 
|  6> * xyz 0 2
|  7> C	-0.079	0.017	0.303
|  8> F	1.239	-0.020	-0.083
|  9> H	-0.570	-0.895	-0.106
| 10> H	-0.590	0.898	-0.113
| 11> *
| 12> 
| 13> $new_job
| 14> ! UKS NORI PBE0 aug-cc-PVTZ-J NBO
| 15> %base "C-F-H-H_radical_EPR"
| 16> 
| 17> *xyzfile 0 2
| 18> 
| 19> %EPRNMR
| 20> 	GTENSOR		TRUE
| 21> 	NUCLEI		= ALL C  {AISO, ADIP, AORB}
| 22> 	NUCLEI		= ALL H  {AISO, ADIP, AORB}
| 23> 	NUCLEI		= ALL F  {AISO, ADIP, AORB}
| 24> 	NUCLEI		= ALL Cl {AISO, ADIP, AORB}
| 25> 	NUCLEI		= ALL Br {AISO, ADIP, AORB}
| 26> 	NUCLEI		= ALL I  {AISO, ADIP, AORB}
| 27> END
| 28> 
| 29> %NBO
| 30> 	NBOKEYLIST = "$NBO NBO NPA AONBO=C PRINT=1 ARCHIVE $END"
| 31> END
| 32> 
| 33>                          ****END OF INPUT****
================================================================================


                 $$$$$$$$$$$$$$$$$$$$$$$$$$$$$$$$$$$$$$$$$$$$$$ 
                 $ THERE ARE  2 JOBS TO BE PROCESSED THIS RUN $
                 $$$$$$$$$$$$$$$$$$$$$$$$$$$$$$$$$$$$$$$$$$$$$$ 




                 $$$$$$$$$$$$$$$$  JOB NUMBER  1 $$$$$$$$$$$$$$


                       *****************************
                       * Geometry Optimization Run *
                       *****************************

Geometry optimization settings:
Update method            Update   .... BFGS
Choice of coordinates    CoordSys .... Z-matrix Internals
Initial Hessian          InHess   .... Almoef's Model

Convergence Tolerances:
Energy Change            TolE     ....  5.0000e-06 Eh
Max. Gradient            TolMAXG  ....  3.0000e-04 Eh/bohr
RMS Gradient             TolRMSG  ....  1.0000e-04 Eh/bohr
Max. Displacement        TolMAXD  ....  4.0000e-03 bohr
RMS Displacement         TolRMSD  ....  2.0000e-03 bohr
Strict Convergence                ....  False
------------------------------------------------------------------------------
                        ORCA OPTIMIZATION COORDINATE SETUP
------------------------------------------------------------------------------

The optimization will be done in new redundant internal coordinates
Making redundant internal coordinates   ...  (new redundants) done
Evaluating the initial hessian          ...  (Almloef) done
Evaluating the coordinates              ...  done
Calculating the B-matrix                .... done
Calculating the G-matrix                .... done
Diagonalizing the G-matrix              .... done
The first mode is                       ....    1
The number of degrees of freedom        ....    6

    -----------------------------------------------------------------
                    Redundant Internal Coordinates


    -----------------------------------------------------------------
         Definition                    Initial Value    Approx d2E/dq
    -----------------------------------------------------------------
      1. B(F   1,C   0)                  1.3739         0.551720   
      2. B(H   2,C   0)                  1.1136         0.330195   
      3. B(H   3,C   0)                  1.1002         0.346915   
      4. A(F   1,C   0,H   3)          111.1569         0.340361   
      5. A(H   2,C   0,H   3)          108.1890         0.285253   
      6. A(F   1,C   0,H   2)          107.3219         0.337566   
      7. I(F   1,H   3,H   2,C   0)    -55.7421         0.006260   
    -----------------------------------------------------------------

Number of atoms                         .... 4
Number of degrees of freedom            .... 7

         *************************************************************
         *                GEOMETRY OPTIMIZATION CYCLE   1            *
         *************************************************************
---------------------------------
CARTESIAN COORDINATES (ANGSTROEM)
---------------------------------
  C     -0.079000    0.017000    0.303000
  F      1.239000   -0.020000   -0.083000
  H     -0.570000   -0.895000   -0.106000
  H     -0.590000    0.898000   -0.113000

----------------------------
CARTESIAN COORDINATES (A.U.)
----------------------------
  NO LB      ZA    FRAG     MASS         X           Y           Z
   0 C     6.0000    0    12.011   -0.149288    0.032125    0.572587
   1 F     9.0000    0    18.998    2.341371   -0.037795   -0.156847
   2 H     1.0000    0     1.008   -1.077144   -1.691305   -0.200311
   3 H     1.0000    0     1.008   -1.114938    1.696974   -0.213539

--------------------------------
INTERNAL COORDINATES (ANGSTROEM)
--------------------------------
 C      0   0   0     0.000000000000     0.00000000     0.00000000
 F      1   0   0     1.373859163088     0.00000000     0.00000000
 H      1   2   0     1.113600466954   107.32185705     0.00000000
 H      1   2   3     1.100153625636   111.15687988   241.88024603

---------------------------
INTERNAL COORDINATES (A.U.)
---------------------------
 C      0   0   0     0.000000000000     0.00000000     0.00000000
 F      1   0   0     2.596217564814     0.00000000     0.00000000
 H      1   2   0     2.104399905150   107.32185705     0.00000000
 H      1   2   3     2.078989057693   111.15687988   241.88024603

---------------------
BASIS SET INFORMATION
---------------------
There are 3 groups of distinct atoms

 Group   1 Type C   : 15s6p3d1f contracted to 9s5p3d1f pattern {711111111/21111/111/1}
 Group   2 Type F   : 15s6p3d1f contracted to 9s5p3d1f pattern {711111111/21111/111/1}
 Group   3 Type H   : 10s3p1d contracted to 6s3p1d pattern {511111/111/1}

Atom   0C    basis set group =>   1
Atom   1F    basis set group =>   2
Atom   2H    basis set group =>   3
Atom   3H    basis set group =>   3
------------------------------------------------------------------------------
                           ORCA GTO INTEGRAL CALCULATION
------------------------------------------------------------------------------
------------------------------------------------------------------------------
                   ___                                                        
                  /   \      - P O W E R E D   B Y -                         
                 /     \                                                     
                 |  |  |   _    _      __       _____    __    __             
                 |  |  |  | |  | |    /  \     |  _  \  |  |  /  |          
                  \  \/   | |  | |   /    \    | | | |  |  | /  /          
                 / \  \   | |__| |  /  /\  \   | |_| |  |  |/  /          
                |  |  |   |  __  | /  /__\  \  |    /   |      \           
                |  |  |   | |  | | |   __   |  |    \   |  |\   \          
                \     /   | |  | | |  |  |  |  | |\  \  |  | \   \       
                 \___/    |_|  |_| |__|  |__|  |_| \__\ |__|  \__/        
                                                                              
                      - O R C A' S   B I G   F R I E N D -                    
                                      &                                       
                       - I N T E G R A L  F E E D E R -                       
                                                                              
 v1 FN, 2020, v2 2021                                                         
------------------------------------------------------------------------------


Reading SHARK input file C-F-H-H_radical_opt.SHARKINP.tmp ... ok
----------------------
SHARK INTEGRAL PACKAGE
----------------------

Number of atoms                             ...      4
Number of basis functions                   ...    132
Number of shells                            ...     56
Maximum angular momentum                    ...      3
Integral batch strategy                     ... SHARK/LIBINT Hybrid
RI-J (if used) integral strategy            ... SPLIT-RIJ (Revised 2003 algorithm where possible)
Printlevel                                  ...      1
Contraction scheme used                     ... SEGMENTED contraction
Coulomb Range Separation                    ... NOT USED
Exchange Range Separation                   ... NOT USED
Finite Nucleus Model                        ... NOT USED
Auxiliary Coulomb fitting basis             ... NOT available
Auxiliary J/K fitting basis                 ... NOT available
Auxiliary Correlation fitting basis         ... NOT available
Auxiliary 'external' fitting basis          ... NOT available
Integral threshold                          ...     2.500000e-11
Primitive cut-off                           ...     2.500000e-12
Primitive pair pre-selection threshold      ...     2.500000e-12

Calculating pre-screening integrals         ... done (  0.0 sec) Dimension = 56
Organizing shell pair data                  ... done (  0.0 sec)
Shell pair information
Total number of shell pairs                 ...      1596
Shell pairs after pre-screening             ...      1529
Total number of primitive shell pairs       ...      3145
Primitive shell pairs kept                  ...      2663
          la=0 lb=0:    411 shell pairs
          la=1 lb=0:    469 shell pairs
          la=1 lb=1:    136 shell pairs
          la=2 lb=0:    238 shell pairs
          la=2 lb=1:    128 shell pairs
          la=2 lb=2:     36 shell pairs
          la=3 lb=0:     60 shell pairs
          la=3 lb=1:     32 shell pairs
          la=3 lb=2:     16 shell pairs
          la=3 lb=3:      3 shell pairs

Calculating one electron integrals          ... done (  0.0 sec)
Calculating Nuclear repulsion               ... done (  0.0 sec) ENN=     31.528666115141 Eh

SHARK setup successfully completed in   0.2 seconds

Maximum memory used throughout the entire GTOINT-calculation: 15.6 MB
-------------------------------------------------------------------------------
                                 ORCA SCF
-------------------------------------------------------------------------------

------------
SCF SETTINGS
------------
Hamiltonian:
 Density Functional     Method          .... DFT(GTOs)
 Exchange Functional    Exchange        .... PBE
   PBE kappa parameter   XKappa         ....  0.804000
   PBE mue parameter    XMuePBE         ....  0.219520
 Correlation Functional Correlation     .... PBE
   PBE beta parameter  CBetaPBE         ....  0.066725
 LDA part of GGA corr.  LDAOpt          .... PW91-LDA
 Gradients option       PostSCFGGA      .... off
 Hybrid DFT is turned on
   Fraction HF Exchange ScalHFX         ....  0.250000
   Scaling of DF-GGA-X  ScalDFX         ....  0.750000
   Scaling of DF-GGA-C  ScalDFC         ....  1.000000
   Scaling of DF-LDA-C  ScalLDAC        ....  1.000000
   Perturbative correction              ....  0.000000
   Density functional embedding theory  .... OFF
   NL short-range parameter             ....  6.900000


General Settings:
 Integral files         IntName         .... C-F-H-H_radical_opt
 Hartree-Fock type      HFTyp           .... UHF
 Total Charge           Charge          ....    0
 Multiplicity           Mult            ....    2
 Number of Electrons    NEL             ....   17
 Basis Dimension        Dim             ....  132
 Nuclear Repulsion      ENuc            ....     31.5286661151 Eh

Convergence Acceleration:
 DIIS                   CNVDIIS         .... on
   Start iteration      DIISMaxIt       ....    12
   Startup error        DIISStart       ....  0.200000
   # of expansion vecs  DIISMaxEq       ....     5
   Bias factor          DIISBfac        ....   1.050
   Max. coefficient     DIISMaxC        ....  10.000
 Trust-Rad. Augm. Hess. CNVTRAH         .... auto
   Auto Start mean grad. ratio tolernc. ....  1.125000
   Auto Start start iteration           ....    20
   Auto Start num. interpolation iter.  ....    10
   Max. Number of Micro iterations      ....    16
   Max. Number of Macro iterations      .... Maxiter - #DIIS iter
   Number of Davidson start vectors     ....     2
   Converg. threshold I  (grad. norm)   ....   1.000e-05
   Converg. threshold II (energy diff.) ....   1.000e-08
   Grad. Scal. Fac. for Micro threshold ....   0.100
   Minimum threshold for Micro iter.    ....   0.010
   NR start threshold (gradient norm)   ....   0.001
   Initial trust radius                 ....   0.400
   Minimum AH scaling param. (alpha)    ....   1.000
   Maximum AH scaling param. (alpha)    .... 1000.000
   Orbital update algorithm             .... Taylor
   White noise on init. David. guess    .... on
   Maximum white noise                  ....   0.010
   Quad. conv. algorithm                .... NR
 SOSCF                  CNVSOSCF        .... off
 Level Shifting         CNVShift        .... on
   Level shift para.    LevelShift      ....    0.2500
   Turn off err/grad.   ShiftErr        ....    0.0010
 Zerner damping         CNVZerner       .... off
 Static damping         CNVDamp         .... on
   Fraction old density DampFac         ....    0.7000
   Max. Damping (<1)    DampMax         ....    0.9800
   Min. Damping (>=0)   DampMin         ....    0.0000
   Turn off err/grad.   DampErr         ....    0.1000
 Fernandez-Rico         CNVRico         .... off

SCF Procedure:
 Maximum # iterations   MaxIter         ....   125
 SCF integral mode      SCFMode         .... Direct
   Integral package                     .... SHARK and LIBINT hybrid scheme
 Reset frequency        DirectResetFreq ....    20
 Integral Threshold     Thresh          ....  2.500e-11 Eh
 Primitive CutOff       TCut            ....  2.500e-12 Eh

Convergence Tolerance:
 Convergence Check Mode ConvCheckMode   .... Total+1el-Energy
 Convergence forced     ConvForced      .... 0
 Energy Change          TolE            ....  1.000e-08 Eh
 1-El. energy change                    ....  1.000e-05 Eh
 DIIS Error             TolErr          ....  5.000e-07


Diagonalization of the overlap matrix:
Smallest eigenvalue                        ... 1.793e-04
Time for diagonalization                   ...    0.006 sec
Threshold for overlap eigenvalues          ... 1.000e-08
Number of eigenvalues below threshold      ... 0
Time for construction of square roots      ...    0.003 sec
Total time needed                          ...    0.009 sec

Time for model grid setup =    0.037 sec

------------------------------
INITIAL GUESS: MODEL POTENTIAL
------------------------------
Loading Hartree-Fock densities                     ... done
Calculating cut-offs                               ... done
Initializing the effective Hamiltonian             ... done
Setting up the integral package (SHARK)            ... done
Starting the Coulomb interaction                   ... done (   0.0 sec)
Reading the grid                                   ... done
Mapping shells                                     ... done
Starting the XC term evaluation                    ... done (   0.0 sec)
  promolecular density results
     # of electrons  =     16.998672584
     EX              =    -15.627643028
     EC              =     -0.550930239
     EX+EC           =    -16.178573267
Transforming the Hamiltonian                       ... done (   0.0 sec)
Diagonalizing the Hamiltonian                      ... done (   0.0 sec)
Back transforming the eigenvectors                 ... done (   0.0 sec)
Now organizing SCF variables                       ... done
                      ------------------
                      INITIAL GUESS DONE (   0.1 sec)
                      ------------------
-------------------
DFT GRID GENERATION
-------------------

General Integration Accuracy     IntAcc      ... 4.388
Radial Grid Type                 RadialGrid  ... OptM3 with GC (2021)
Angular Grid (max. ang.)         AngularGrid ... 4 (Lebedev-302)
Angular grid pruning method      GridPruning ... 4 (adaptive)
Weight generation scheme         WeightScheme... Becke
Basis function cutoff            BFCut       ... 1.0000e-11
Integration weight cutoff        WCut        ... 1.0000e-14
Angular grids for H and He will be reduced by one unit
Partially contracted basis set               ... off
Rotationally invariant grid construction     ... off

Total number of grid points                  ...    19957
Total number of batches                      ...      314
Average number of points per batch           ...       63
Average number of grid points per atom       ...     4989
Time for grid setup =    0.162 sec

--------------
SCF ITERATIONS
--------------
ITER       Energy         Delta-E        Max-DP      RMS-DP      [F,P]     Damp
               ***  Starting incremental Fock matrix formation  ***
  0   -138.9589862767   0.000000000000 0.00639372  0.00016212  0.0824091 0.7000
  1   -138.9647467981  -0.005760521312 0.00587849  0.00011545  0.0566089 0.7000
                               ***Turning on DIIS***
  2   -138.9680244462  -0.003277648155 0.01359690  0.00024448  0.0391187 0.0000
  3   -138.9746928002  -0.006668353947 0.00533286  0.00009779  0.0100503 0.0000
  4   -138.9752657365  -0.000572936341 0.00152527  0.00003934  0.0037962 0.0000
  5   -138.9753620018  -0.000096265278 0.00128702  0.00001932  0.0024958 0.0000
  6   -138.9753951252  -0.000033123406 0.00102888  0.00002029  0.0008647 0.0000
  7   -138.9754090775  -0.000013952305 0.00036370  0.00000606  0.0003070 0.0000
  8   -138.9754102828  -0.000001205286 0.00006904  0.00000128  0.0000759 0.0000
  9   -138.9754103428  -0.000000060037 0.00001221  0.00000033  0.0000174 0.0000
 10   -138.9754103464  -0.000000003640 0.00000259  0.00000007  0.0000043 0.0000
 11   -138.9754103466  -0.000000000189 0.00000134  0.00000003  0.0000038 0.0000
 12   -138.9754103467  -0.000000000069 0.00000096  0.00000002  0.0000022 0.0000
                 **** Energy Check signals convergence ****

               *****************************************************
               *                     SUCCESS                       *
               *           SCF CONVERGED AFTER  13 CYCLES          *
               *****************************************************


----------------
TOTAL SCF ENERGY
----------------

Total Energy       :         -138.97541035 Eh           -3781.71317 eV

Components:
Nuclear Repulsion  :           31.52866612 Eh             857.93862 eV
Electronic Energy  :         -170.50407646 Eh           -4639.65180 eV
One Electron Energy:         -253.95341311 Eh           -6910.42369 eV
Two Electron Energy:           83.44933665 Eh            2270.77189 eV

Virial components:
Potential Energy   :         -277.36650569 Eh           -7547.52633 eV
Kinetic Energy     :          138.39109534 Eh            3765.81315 eV
Virial Ratio       :            2.00422220


DFT components:
N(Alpha)           :        8.999987207713 electrons
N(Beta)            :        7.999996435309 electrons
N(Total)           :       16.999983643021 electrons
E(X)               :      -11.892004794572 Eh       
E(C)               :       -0.549015231869 Eh       
E(XC)              :      -12.441020026441 Eh       
DFET-embed. en.    :        0.000000000000 Eh       

---------------
SCF CONVERGENCE
---------------

  Last Energy change         ...   -1.2625e-10  Tolerance :   1.0000e-08
  Last MAX-Density change    ...    1.6609e-06  Tolerance :   1.0000e-07
  Last RMS-Density change    ...    4.0608e-08  Tolerance :   5.0000e-09
  Last DIIS Error            ...    3.4595e-07  Tolerance :   5.0000e-07

             **** THE GBW FILE WAS UPDATED (C-F-H-H_radical_opt.gbw) ****
             **** DENSITY C-F-H-H_radical_opt.scfp WAS UPDATED ****
             **** ENERGY FILE WAS UPDATED (C-F-H-H_radical_opt.en.tmp) ****
----------------------
UHF SPIN CONTAMINATION
----------------------

Warning: in a DFT calculation there is little theoretical justification to 
         calculate <S**2> as in Hartree-Fock theory. We will do it anyways
         but you should keep in mind that the values have only limited relevance

Expectation value of <S**2>     :     0.753218
Ideal value S*(S+1) for S=0.5   :     0.750000
Deviation                       :     0.003218

             **** THE GBW FILE WAS UPDATED (C-F-H-H_radical_opt.gbw) ****
             **** DENSITY C-F-H-H_radical_opt.scfp WAS UPDATED ****
----------------
ORBITAL ENERGIES
----------------
                 SPIN UP ORBITALS
  NO   OCC          E(Eh)            E(eV) 
   0   1.0000     -24.791110      -674.6004 
   1   1.0000     -10.329628      -281.0835 
   2   1.0000      -1.257001       -34.2047 
   3   1.0000      -0.720591       -19.6083 
   4   1.0000      -0.532656       -14.4943 
   5   1.0000      -0.518004       -14.0956 
   6   1.0000      -0.487176       -13.2567 
   7   1.0000      -0.378725       -10.3056 
   8   1.0000      -0.278694        -7.5836 
   9   0.0000       0.000230         0.0063 
  10   0.0000       0.027259         0.7418 
  11   0.0000       0.028598         0.7782 
  12   0.0000       0.050068         1.3624 
  13   0.0000       0.094154         2.5621 
  14   0.0000       0.096721         2.6319 
  15   0.0000       0.124816         3.3964 
  16   0.0000       0.134318         3.6550 
  17   0.0000       0.146732         3.9928 
  18   0.0000       0.165928         4.5151 
  19   0.0000       0.170616         4.6427 
  20   0.0000       0.179274         4.8783 
  21   0.0000       0.230259         6.2657 
  22   0.0000       0.267428         7.2771 
  23   0.0000       0.288277         7.8444 
  24   0.0000       0.297497         8.0953 
  25   0.0000       0.302665         8.2359 
  26   0.0000       0.322386         8.7726 
  27   0.0000       0.326394         8.8816 
  28   0.0000       0.327711         8.9175 
  29   0.0000       0.341096         9.2817 
  30   0.0000       0.365692         9.9510 
  31   0.0000       0.413324        11.2471 
  32   0.0000       0.427249        11.6260 
  33   0.0000       0.522757        14.2249 
  34   0.0000       0.525499        14.2996 
  35   0.0000       0.549673        14.9574 
  36   0.0000       0.592342        16.1184 
  37   0.0000       0.724341        19.7103 
  38   0.0000       0.788143        21.4465 
  39   0.0000       0.800990        21.7961 
  40   0.0000       0.855801        23.2875 
  41   0.0000       0.865800        23.5596 
  42   0.0000       0.869621        23.6636 
  43   0.0000       0.902614        24.5614 
  44   0.0000       0.957497        26.0548 
  45   0.0000       0.965684        26.2776 
  46   0.0000       1.042839        28.3771 
  47   0.0000       1.076906        29.3041 
  48   0.0000       1.126655        30.6578 
  49   0.0000       1.157478        31.4966 
  50   0.0000       1.188881        32.3511 
  51   0.0000       1.221706        33.2443 
  52   0.0000       1.251130        34.0450 
  53   0.0000       1.314499        35.7693 
  54   0.0000       1.374814        37.4106 
  55   0.0000       1.416369        38.5414 
  56   0.0000       1.467490        39.9324 
  57   0.0000       1.527337        41.5610 
  58   0.0000       1.789518        48.6953 
  59   0.0000       2.045996        55.6744 
  60   0.0000       2.119048        57.6622 
  61   0.0000       2.177656        59.2570 
  62   0.0000       2.397952        65.2516 
  63   0.0000       2.447854        66.6095 
  64   0.0000       2.500505        68.0422 
  65   0.0000       2.581027        70.2333 
  66   0.0000       2.590737        70.4975 
  67   0.0000       2.626393        71.4678 
  68   0.0000       2.717745        73.9536 
  69   0.0000       2.760062        75.1051 
  70   0.0000       2.833216        77.0957 
  71   0.0000       2.921276        79.4920 
  72   0.0000       2.995641        81.5155 
  73   0.0000       3.015788        82.0638 
  74   0.0000       3.027811        82.3909 
  75   0.0000       3.141675        85.4893 
  76   0.0000       3.198952        87.0479 
  77   0.0000       3.274692        89.1089 
  78   0.0000       3.326787        90.5265 
  79   0.0000       3.377652        91.9106 
  80   0.0000       3.416835        92.9768 
  81   0.0000       3.440723        93.6268 
  82   0.0000       3.624035        98.6150 
  83   0.0000       3.647559        99.2551 
  84   0.0000       3.690459       100.4225 
  85   0.0000       3.889533       105.8396 
  86   0.0000       3.983039       108.3840 
  87   0.0000       4.008756       109.0838 
  88   0.0000       4.093471       111.3890 
  89   0.0000       4.177052       113.6634 
  90   0.0000       4.513044       122.8062 
  91   0.0000       4.556002       123.9751 
  92   0.0000       4.709836       128.1611 
  93   0.0000       4.815363       131.0327 
  94   0.0000       4.836038       131.5953 
  95   0.0000       4.858130       132.1964 
  96   0.0000       4.976749       135.4242 
  97   0.0000       5.064439       137.8104 
  98   0.0000       5.560205       151.3009 
  99   0.0000       5.624988       153.0637 
 100   0.0000       5.813158       158.1841 
 101   0.0000       6.541713       178.0091 
 102   0.0000       6.879600       187.2034 
 103   0.0000       6.882275       187.2762 
 104   0.0000       7.001263       190.5140 
 105   0.0000       7.071972       192.4381 
 106   0.0000       7.389422       201.0764 
 107   0.0000       7.448075       202.6724 
 108   0.0000       7.650343       208.1764 
 109   0.0000       8.769058       238.6182 
 110   0.0000       8.779583       238.9046 
 111   0.0000       8.860521       241.1070 
 112   0.0000       8.939567       243.2580 
 113   0.0000       8.997806       244.8428 
 114   0.0000       9.051846       246.3132 
 115   0.0000       9.383503       255.3381 
 116   0.0000       9.753388       265.4032 
 117   0.0000      10.333608       281.1918 
 118   0.0000      10.564427       287.4727 
 119   0.0000      12.148377       330.5742 
 120   0.0000      20.156352       548.4822 
 121   0.0000      20.239169       550.7358 
 122   0.0000      20.871547       567.9437 
 123   0.0000      27.467929       747.4403 
 124   0.0000      46.450013      1263.9691 
 125   0.0000      67.331712      1832.1890 
 126   0.0000      67.361656      1833.0038 
 127   0.0000     109.344504      2975.4152 
 128   0.0000     170.724464      4645.6488 
 129   0.0000     404.632121     11010.5998 
 130   0.0000     800.128327     21772.5987 
 131   0.0000    1899.576274     51690.0983 

                 SPIN DOWN ORBITALS
  NO   OCC          E(Eh)            E(eV) 
   0   1.0000     -24.786900      -674.4859 
   1   1.0000     -10.313083      -280.6333 
   2   1.0000      -1.247149       -33.9367 
   3   1.0000      -0.689125       -18.7520 
   4   1.0000      -0.518746       -14.1158 
   5   1.0000      -0.509759       -13.8712 
   6   1.0000      -0.452742       -12.3197 
   7   1.0000      -0.370643       -10.0857 
   8   0.0000      -0.081312        -2.2126 
   9   0.0000       0.005175         0.1408 
  10   0.0000       0.029574         0.8048 
  11   0.0000       0.034153         0.9294 
  12   0.0000       0.068705         1.8696 
  13   0.0000       0.100219         2.7271 
  14   0.0000       0.100909         2.7459 
  15   0.0000       0.132250         3.5987 
  16   0.0000       0.147182         4.0050 
  17   0.0000       0.156666         4.2631 
  18   0.0000       0.171051         4.6545 
  19   0.0000       0.176536         4.8038 
  20   0.0000       0.185551         5.0491 
  21   0.0000       0.248891         6.7727 
  22   0.0000       0.269710         7.3392 
  23   0.0000       0.292044         7.9469 
  24   0.0000       0.310354         8.4452 
  25   0.0000       0.314855         8.5676 
  26   0.0000       0.331864         9.0305 
  27   0.0000       0.333793         9.0830 
  28   0.0000       0.340990         9.2788 
  29   0.0000       0.351068         9.5530 
  30   0.0000       0.372871        10.1463 
  31   0.0000       0.424801        11.5594 
  32   0.0000       0.436677        11.8826 
  33   0.0000       0.531881        14.4732 
  34   0.0000       0.543135        14.7795 
  35   0.0000       0.574136        15.6230 
  36   0.0000       0.604100        16.4384 
  37   0.0000       0.734335        19.9823 
  38   0.0000       0.810155        22.0454 
  39   0.0000       0.813275        22.1303 
  40   0.0000       0.868910        23.6442 
  41   0.0000       0.873896        23.7799 
  42   0.0000       0.876003        23.8372 
  43   0.0000       0.929361        25.2892 
  44   0.0000       0.967875        26.3372 
  45   0.0000       0.973309        26.4851 
  46   0.0000       1.048668        28.5357 
  47   0.0000       1.084071        29.4991 
  48   0.0000       1.140132        31.0246 
  49   0.0000       1.181175        32.1414 
  50   0.0000       1.210468        32.9385 
  51   0.0000       1.231017        33.4977 
  52   0.0000       1.270822        34.5808 
  53   0.0000       1.323346        36.0101 
  54   0.0000       1.391494        37.8645 
  55   0.0000       1.430578        38.9280 
  56   0.0000       1.478903        40.2430 
  57   0.0000       1.539984        41.9051 
  58   0.0000       1.795624        48.8614 
  59   0.0000       2.073869        56.4328 
  60   0.0000       2.128774        57.9269 
  61   0.0000       2.235227        60.8236 
  62   0.0000       2.406442        65.4826 
  63   0.0000       2.468210        67.1634 
  64   0.0000       2.521665        68.6180 
  65   0.0000       2.594826        70.6088 
  66   0.0000       2.599439        70.7343 
  67   0.0000       2.644236        71.9533 
  68   0.0000       2.730094        74.2896 
  69   0.0000       2.794831        76.0512 
  70   0.0000       2.858704        77.7893 
  71   0.0000       2.949278        80.2539 
  72   0.0000       3.021774        82.2267 
  73   0.0000       3.045539        82.8733 
  74   0.0000       3.065212        83.4087 
  75   0.0000       3.185100        86.6710 
  76   0.0000       3.237990        88.1102 
  77   0.0000       3.303570        89.8947 
  78   0.0000       3.356654        91.3392 
  79   0.0000       3.406268        92.6893 
  80   0.0000       3.437293        93.5335 
  81   0.0000       3.455065        94.0171 
  82   0.0000       3.638882        99.0190 
  83   0.0000       3.661621        99.6378 
  84   0.0000       3.714865       101.0866 
  85   0.0000       3.911077       106.4258 
  86   0.0000       3.989674       108.5646 
  87   0.0000       4.016156       109.2852 
  88   0.0000       4.098851       111.5354 
  89   0.0000       4.180652       113.7613 
  90   0.0000       4.521014       123.0231 
  91   0.0000       4.575433       124.5039 
  92   0.0000       4.729351       128.6922 
  93   0.0000       4.829423       131.4153 
  94   0.0000       4.845924       131.8643 
  95   0.0000       4.875202       132.6610 
  96   0.0000       4.993105       135.8693 
  97   0.0000       5.073005       138.0435 
  98   0.0000       5.568821       151.5353 
  99   0.0000       5.642778       153.5478 
 100   0.0000       5.828169       158.5925 
 101   0.0000       6.550471       178.2474 
 102   0.0000       6.887941       187.4304 
 103   0.0000       6.890582       187.5023 
 104   0.0000       7.007801       190.6920 
 105   0.0000       7.078276       192.6097 
 106   0.0000       7.399077       201.3391 
 107   0.0000       7.450238       202.7313 
 108   0.0000       7.658209       208.3905 
 109   0.0000       8.782941       238.9960 
 110   0.0000       8.793135       239.2734 
 111   0.0000       8.906931       242.3699 
 112   0.0000       8.953263       243.6307 
 113   0.0000       8.999437       244.8871 
 114   0.0000       9.072163       246.8661 
 115   0.0000       9.394564       255.6391 
 116   0.0000       9.765193       265.7244 
 117   0.0000      10.343471       281.4602 
 118   0.0000      10.569920       287.6221 
 119   0.0000      12.171192       331.1950 
 120   0.0000      20.169949       548.8522 
 121   0.0000      20.241924       550.8108 
 122   0.0000      20.874525       568.0247 
 123   0.0000      27.474730       747.6254 
 124   0.0000      46.468269      1264.4659 
 125   0.0000      67.332398      1832.2077 
 126   0.0000      67.362653      1833.0310 
 127   0.0000     109.349136      2975.5413 
 128   0.0000     170.733553      4645.8962 
 129   0.0000     404.633640     11010.6411 
 130   0.0000     800.133615     21772.7426 
 131   0.0000    1899.576729     51690.1107 
-------
TIMINGS
-------

Total SCF time: 0 days 0 hours 0 min 18 sec 

Total time                  ....      18.520 sec
Sum of individual times     ....      18.173 sec  ( 98.1%)

Fock matrix formation       ....      17.605 sec  ( 95.1%)
  XC integration            ....       4.393 sec  ( 25.0% of F)
    Basis function eval.    ....       0.854 sec  ( 19.5% of XC)
    Density eval.           ....       1.010 sec  ( 23.0% of XC)
    XC-Functional eval.     ....       0.400 sec  (  9.1% of XC)
    XC-Potential eval.      ....       1.880 sec  ( 42.8% of XC)
Diagonalization             ....       0.143 sec  (  0.8%)
Density matrix formation    ....       0.007 sec  (  0.0%)
Population analysis         ....       0.001 sec  (  0.0%)
Initial guess               ....       0.073 sec  (  0.4%)
Orbital Transformation      ....       0.000 sec  (  0.0%)
Orbital Orthonormalization  ....       0.000 sec  (  0.0%)
DIIS solution               ....       0.145 sec  (  0.8%)
Grid generation             ....       0.199 sec  (  1.1%)

Maximum memory used throughout the entire SCF-calculation: 240.9 MB

-------------------------   --------------------
FINAL SINGLE POINT ENERGY      -138.975410346831
-------------------------   --------------------

------------------------------------------------------------------------------
                         ORCA SCF GRADIENT CALCULATION
------------------------------------------------------------------------------

Gradient of the Kohn-Sham DFT energy:
Kohn-Sham wavefunction type      ... UKS
Hartree-Fock exchange scaling    ...    0.250
Number of operators              ...    2
Number of atoms                  ...    4
Basis set dimensions             ...  132
Integral neglect threshold       ... 2.5e-11
Integral primitive cutoff        ... 2.5e-12
SHARK Integral package           ... ON

Nuc. rep. gradient       (SHARK) ... done (  0.0 sec)
HCore & Overlap gradient (SHARK) ... done (  0.0 sec)
Two-Electron gradient    (SHARK) ... done (  4.5 sec)
Exchange-correlation gradient    ... done

------------------
CARTESIAN GRADIENT
------------------

   1   C   :   -0.007119158    0.013738970    0.050768538
   2   F   :    0.019900194   -0.005169575   -0.015276309
   3   H   :   -0.005285137   -0.003691000   -0.020212228
   4   H   :   -0.007495900   -0.004878395   -0.015280001

Difference to translation invariance:
           :   -0.0000000000   -0.0000000000    0.0000000000

Difference to rotation invariance:
           :    0.0000049281    0.0000006268    0.0000222814

Norm of the cartesian gradient     ...    0.0650887860
RMS gradient                       ...    0.0187895140
MAX gradient                       ...    0.0507685385

-------
TIMINGS
-------

Total SCF gradient time            ...        5.404 sec

One electron gradient       ....       0.029 sec  (  0.5%)
Two electron gradient       ....       4.510 sec  ( 83.5%)
XC gradient                 ....       0.783 sec  ( 14.5%)

Maximum memory used throughout the entire SCFGRAD-calculation: 41.1 MB
------------------------------------------------------------------------------
                         ORCA GEOMETRY RELAXATION STEP
------------------------------------------------------------------------------

Reading the OPT-File                    .... done
Getting information on internals        .... done
Copying old internal coords+grads       .... done
Making the new internal coordinates     .... (new redundants).... done
Validating the new internal coordinates .... (new redundants).... done
Calculating the B-matrix                .... done
Calculating the G,G- and P matrices     .... done
Transforming gradient to internals      .... done
Projecting the internal gradient        .... done
Number of atoms                         ....   4
Number of internal coordinates          ....   7
Current Energy                          ....  -138.975410347 Eh
Current gradient norm                   ....     0.065088786 Eh/bohr
Maximum allowed component of the step   ....  0.300
Current trust radius                    ....  0.300
Evaluating the initial hessian          ....  (Almloef) done
Projecting the Hessian                  .... done
Forming the augmented Hessian           .... done
Diagonalizing the augmented Hessian     .... done
Last element of RFO vector              ....  0.972307510
Lowest eigenvalues of augmented Hessian:
 -0.009642008  0.116658096  0.293498272  0.330690035  0.339239160
Length of the computed step             ....  0.240361374
The final length of the internal step   ....  0.240361374
Converting the step to cartesian space:
 Initial RMS(Int)=    0.0908480602
Transforming coordinates:
 Iter   0:  RMS(Cart)=    0.0520027409 RMS(Int)=    0.0916154564
 Iter   1:  RMS(Cart)=    0.0043299159 RMS(Int)=    0.0058150356
 Iter   2:  RMS(Cart)=    0.0002755540 RMS(Int)=    0.0004158587
 Iter   3:  RMS(Cart)=    0.0000399049 RMS(Int)=    0.0000519803
 Iter   4:  RMS(Cart)=    0.0000021813 RMS(Int)=    0.0000036420
 Iter   5:  RMS(Cart)=    0.0000003514 RMS(Int)=    0.0000004488
 Iter   6:  RMS(Cart)=    0.0000000202 RMS(Int)=    0.0000000336
done
Storing new coordinates                 .... done

                                .--------------------.
          ----------------------|Geometry convergence|-------------------------
          Item                value                   Tolerance       Converged
          ---------------------------------------------------------------------
          RMS gradient        0.0176991234            0.0001000000      NO
          MAX gradient        0.0300908690            0.0003000000      NO
          RMS step            0.0908480602            0.0020000000      NO
          MAX step            0.1729453506            0.0040000000      NO
          ........................................................
          Max(Bonds)      0.0222      Max(Angles)    7.43
          Max(Dihed)        0.00      Max(Improp)    9.91
          ---------------------------------------------------------------------

The optimization has not yet converged - more geometry cycles are needed


    ---------------------------------------------------------------------------
                         Redundant Internal Coordinates
                            (Angstroem and degrees)

        Definition                    Value    dE/dq     Step     New-Value
    ----------------------------------------------------------------------------
     1. B(F   1,C   0)                1.3739  0.023522 -0.0222    1.3517   
     2. B(H   2,C   0)                1.1136  0.012776 -0.0199    1.0937   
     3. B(H   3,C   0)                1.1002  0.005353 -0.0079    1.0922   
     4. A(F   1,C   0,H   3)          111.16  0.003925    2.24    113.40   
     5. A(H   2,C   0,H   3)          108.19 -0.030091    7.43    115.62   
     6. A(F   1,C   0,H   2)          107.32 -0.010856    4.48    111.80   
     7. I(F   1,H   3,H   2,C   0)    -55.74 -0.020222    9.91    -45.83   
    ----------------------------------------------------------------------------

         *************************************************************
         *                GEOMETRY OPTIMIZATION CYCLE   2            *
         *************************************************************
---------------------------------
CARTESIAN COORDINATES (ANGSTROEM)
---------------------------------
  C     -0.083658    0.006336    0.231881
  F      1.235015   -0.010201   -0.064569
  H     -0.572329   -0.921738   -0.078077
  H     -0.579028    0.925603   -0.088235

----------------------------
CARTESIAN COORDINATES (A.U.)
----------------------------
  NO LB      ZA    FRAG     MASS         X           Y           Z
   0 C     6.0000    0    12.011   -0.158090    0.011973    0.438192
   1 F     9.0000    0    18.998    2.333839   -0.019278   -0.122018
   2 H     1.0000    0     1.008   -1.081545   -1.741832   -0.147544
   3 H     1.0000    0     1.008   -1.094204    1.749137   -0.166740

--------------------------------
INTERNAL COORDINATES (ANGSTROEM)
--------------------------------
 C      0   0   0     0.000000000000     0.00000000     0.00000000
 F      1   0   0     1.351685411846     0.00000000     0.00000000
 H      1   2   0     1.093706293166   111.30627473     0.00000000
 H      1   2   3     1.092208383026   112.86048197   228.42826401

---------------------------
INTERNAL COORDINATES (A.U.)
---------------------------
 C      0   0   0     0.000000000000     0.00000000     0.00000000
 F      1   0   0     2.554315247606     0.00000000     0.00000000
 H      1   2   0     2.066805365030   111.30627473     0.00000000
 H      1   2   3     2.063974725093   112.86048197   228.42826401

------------------------------------------------------------------------------
                   ___                                                        
                  /   \      - P O W E R E D   B Y -                         
                 /     \                                                     
                 |  |  |   _    _      __       _____    __    __             
                 |  |  |  | |  | |    /  \     |  _  \  |  |  /  |          
                  \  \/   | |  | |   /    \    | | | |  |  | /  /          
                 / \  \   | |__| |  /  /\  \   | |_| |  |  |/  /          
                |  |  |   |  __  | /  /__\  \  |    /   |      \           
                |  |  |   | |  | | |   __   |  |    \   |  |\   \          
                \     /   | |  | | |  |  |  |  | |\  \  |  | \   \       
                 \___/    |_|  |_| |__|  |__|  |_| \__\ |__|  \__/        
                                                                              
                      - O R C A' S   B I G   F R I E N D -                    
                                      &                                       
                       - I N T E G R A L  F E E D E R -                       
                                                                              
 v1 FN, 2020, v2 2021                                                         
------------------------------------------------------------------------------


Reading SHARK input file C-F-H-H_radical_opt.SHARKINP.tmp ... ok
----------------------
SHARK INTEGRAL PACKAGE
----------------------

Number of atoms                             ...      4
Number of basis functions                   ...    132
Number of shells                            ...     56
Maximum angular momentum                    ...      3
Integral batch strategy                     ... SHARK/LIBINT Hybrid
RI-J (if used) integral strategy            ... SPLIT-RIJ (Revised 2003 algorithm where possible)
Printlevel                                  ...      1
Contraction scheme used                     ... SEGMENTED contraction
Coulomb Range Separation                    ... NOT USED
Exchange Range Separation                   ... NOT USED
Finite Nucleus Model                        ... NOT USED
Auxiliary Coulomb fitting basis             ... NOT available
Auxiliary J/K fitting basis                 ... NOT available
Auxiliary Correlation fitting basis         ... NOT available
Auxiliary 'external' fitting basis          ... NOT available
Integral threshold                          ...     2.500000e-11
Primitive cut-off                           ...     2.500000e-12
Primitive pair pre-selection threshold      ...     2.500000e-12

Calculating pre-screening integrals         ... done (  0.0 sec) Dimension = 56
Organizing shell pair data                  ... done (  0.0 sec)
Shell pair information
Total number of shell pairs                 ...      1596
Shell pairs after pre-screening             ...      1530
Total number of primitive shell pairs       ...      3145
Primitive shell pairs kept                  ...      2670
          la=0 lb=0:    411 shell pairs
          la=1 lb=0:    470 shell pairs
          la=1 lb=1:    136 shell pairs
          la=2 lb=0:    238 shell pairs
          la=2 lb=1:    128 shell pairs
          la=2 lb=2:     36 shell pairs
          la=3 lb=0:     60 shell pairs
          la=3 lb=1:     32 shell pairs
          la=3 lb=2:     16 shell pairs
          la=3 lb=3:      3 shell pairs

Calculating one electron integrals          ... done (  0.0 sec)
Calculating Nuclear repulsion               ... done (  0.0 sec) ENN=     31.923041322010 Eh

SHARK setup successfully completed in   0.2 seconds

Maximum memory used throughout the entire GTOINT-calculation: 15.6 MB

Diagonalization of the overlap matrix:
Smallest eigenvalue                        ... 1.830e-04
Time for diagonalization                   ...    0.006 sec
Threshold for overlap eigenvalues          ... 1.000e-08
Number of eigenvalues below threshold      ... 0
Time for construction of square roots      ...    0.003 sec
Total time needed                          ...    0.009 sec

-------------------
DFT GRID GENERATION
-------------------

General Integration Accuracy     IntAcc      ... 4.388
Radial Grid Type                 RadialGrid  ... OptM3 with GC (2021)
Angular Grid (max. ang.)         AngularGrid ... 4 (Lebedev-302)
Angular grid pruning method      GridPruning ... 4 (adaptive)
Weight generation scheme         WeightScheme... Becke
Basis function cutoff            BFCut       ... 1.0000e-11
Integration weight cutoff        WCut        ... 1.0000e-14
Angular grids for H and He will be reduced by one unit
Partially contracted basis set               ... off
Rotationally invariant grid construction     ... off

Total number of grid points                  ...    19960
Total number of batches                      ...      314
Average number of points per batch           ...       63
Average number of grid points per atom       ...     4990
Time for grid setup =    0.179 sec

--------------
SCF ITERATIONS
--------------
ITER       Energy         Delta-E        Max-DP      RMS-DP      [F,P]     Damp
               ***  Starting incremental Fock matrix formation  ***
  0   -138.9792790643   0.000000000000 0.00284136  0.00007759  0.0162098 0.7000
  1   -138.9800811616  -0.000802097369 0.00261861  0.00007050  0.0121774 0.7000
                               ***Turning on DIIS***
  2   -138.9807107795  -0.000629617862 0.00725223  0.00018436  0.0089197 0.0000
  3   -138.9823551943  -0.001644414824 0.00200827  0.00003600  0.0020321 0.0000
  4   -138.9824052288  -0.000050034464 0.00154873  0.00002598  0.0009421 0.0000
  5   -138.9824187124  -0.000013483629 0.00041245  0.00000757  0.0003515 0.0000
  6   -138.9824202439  -0.000001531523 0.00007982  0.00000243  0.0002768 0.0000
  7   -138.9824205235  -0.000000279551 0.00002993  0.00000094  0.0001458 0.0000
  8   -138.9824205947  -0.000000071156 0.00000844  0.00000023  0.0000259 0.0000
  9   -138.9824205977  -0.000000003039 0.00000155  0.00000005  0.0000035 0.0000
                            ***DIIS convergence achieved***

               *****************************************************
               *                     SUCCESS                       *
               *           SCF CONVERGED AFTER  10 CYCLES          *
               *****************************************************

Total Energy       :         -138.98242060 Eh           -3781.90393 eV
  Last Energy change         ...   -3.7971e-11  Tolerance :   1.0000e-08
  Last MAX-Density change    ...    8.5226e-07  Tolerance :   1.0000e-07
             **** THE GBW FILE WAS UPDATED (C-F-H-H_radical_opt.gbw) ****
             **** DENSITY C-F-H-H_radical_opt.scfp WAS UPDATED ****
             **** ENERGY FILE WAS UPDATED (C-F-H-H_radical_opt.en.tmp) ****
----------------------
UHF SPIN CONTAMINATION
----------------------

Warning: in a DFT calculation there is little theoretical justification to 
         calculate <S**2> as in Hartree-Fock theory. We will do it anyways
         but you should keep in mind that the values have only limited relevance

Expectation value of <S**2>     :     0.753490
Ideal value S*(S+1) for S=0.5   :     0.750000
Deviation                       :     0.003490

             **** THE GBW FILE WAS UPDATED (C-F-H-H_radical_opt.gbw) ****
             **** DENSITY C-F-H-H_radical_opt.scfp WAS UPDATED ****
Total SCF time: 0 days 0 hours 0 min 14 sec 

Maximum memory used throughout the entire SCF-calculation: 240.9 MB

-------------------------   --------------------
FINAL SINGLE POINT ENERGY      -138.982420597729
-------------------------   --------------------

------------------------------------------------------------------------------
                         ORCA SCF GRADIENT CALCULATION
------------------------------------------------------------------------------

Gradient of the Kohn-Sham DFT energy:
Kohn-Sham wavefunction type      ... UKS
Hartree-Fock exchange scaling    ...    0.250
Number of operators              ...    2
Number of atoms                  ...    4
Basis set dimensions             ...  132
Integral neglect threshold       ... 2.5e-11
Integral primitive cutoff        ... 2.5e-12
SHARK Integral package           ... ON

Nuc. rep. gradient       (SHARK) ... done (  0.0 sec)
HCore & Overlap gradient (SHARK) ... done (  0.0 sec)
Two-Electron gradient    (SHARK) ... done (  4.5 sec)
Exchange-correlation gradient    ... done

------------------
CARTESIAN GRADIENT
------------------

   1   C   :   -0.004421776    0.003637861    0.023412864
   2   F   :    0.011079542   -0.001989009   -0.006997745
   3   H   :   -0.002429661   -0.000443309   -0.008708955
   4   H   :   -0.004228105   -0.001205544   -0.007706164

Difference to translation invariance:
           :    0.0000000000   -0.0000000000   -0.0000000000

Difference to rotation invariance:
           :    0.0000024128   -0.0000442977    0.0000114323

Norm of the cartesian gradient     ...    0.0302867962
RMS gradient                       ...    0.0087430450
MAX gradient                       ...    0.0234128642

-------
TIMINGS
-------

Total SCF gradient time            ...        5.462 sec

One electron gradient       ....       0.039 sec  (  0.7%)
Two electron gradient       ....       4.515 sec  ( 82.7%)
XC gradient                 ....       0.827 sec  ( 15.2%)

Maximum memory used throughout the entire SCFGRAD-calculation: 41.1 MB
------------------------------------------------------------------------------
                         ORCA GEOMETRY RELAXATION STEP
------------------------------------------------------------------------------

Reading the OPT-File                    .... done
Getting information on internals        .... done
Copying old internal coords+grads       .... done
Making the new internal coordinates     .... (new redundants).... done
Validating the new internal coordinates .... (new redundants).... done
Calculating the B-matrix                .... done
Calculating the G,G- and P matrices     .... done
Transforming gradient to internals      .... done
Projecting the internal gradient        .... done
Number of atoms                         ....   4
Number of internal coordinates          ....   7
Current Energy                          ....  -138.982420598 Eh
Current gradient norm                   ....     0.030286796 Eh/bohr
Maximum allowed component of the step   ....  0.300
Current trust radius                    ....  0.300
Updating the Hessian (BFGS)             .... done
Forming the augmented Hessian           .... done
Diagonalizing the augmented Hessian     .... done
Last element of RFO vector              ....  0.979253357
Lowest eigenvalues of augmented Hessian:
 -0.003904588  0.077876186  0.258550203  0.329168953  0.337211645
Length of the computed step             ....  0.206932900
The final length of the internal step   ....  0.206932900
Converting the step to cartesian space:
 Initial RMS(Int)=    0.0782132846
Transforming coordinates:
 Iter   0:  RMS(Cart)=    0.0425570469 RMS(Int)=    0.0792648994
 Iter   1:  RMS(Cart)=    0.0032243022 RMS(Int)=    0.0043872432
 Iter   2:  RMS(Cart)=    0.0001761155 RMS(Int)=    0.0002891710
 Iter   3:  RMS(Cart)=    0.0000248325 RMS(Int)=    0.0000339906
 Iter   4:  RMS(Cart)=    0.0000015093 RMS(Int)=    0.0000022910
 Iter   5:  RMS(Cart)=    0.0000001630 RMS(Int)=    0.0000002333
 Iter   6:  RMS(Cart)=    0.0000000141 RMS(Int)=    0.0000000196
done
Storing new coordinates                 .... done

                                .--------------------.
          ----------------------|Geometry convergence|-------------------------
          Item                value                   Tolerance       Converged
          ---------------------------------------------------------------------
          Energy change      -0.0070102509            0.0000050000      NO
          RMS gradient        0.0083690355            0.0001000000      NO
          MAX gradient        0.0132519892            0.0003000000      NO
          RMS step            0.0782132846            0.0020000000      NO
          MAX step            0.1575661413            0.0040000000      NO
          ........................................................
          Max(Bonds)      0.0218      Max(Angles)    6.16
          Max(Dihed)        0.00      Max(Improp)    9.03
          ---------------------------------------------------------------------

The optimization has not yet converged - more geometry cycles are needed


    ---------------------------------------------------------------------------
                         Redundant Internal Coordinates
                            (Angstroem and degrees)

        Definition                    Value    dE/dq     Step     New-Value
    ----------------------------------------------------------------------------
     1. B(F   1,C   0)                1.3517  0.012370 -0.0218    1.3299   
     2. B(H   2,C   0)                1.0937  0.003928 -0.0113    1.0824   
     3. B(H   3,C   0)                1.0922  0.003161 -0.0087    1.0835   
     4. A(F   1,C   0,H   3)          112.86  0.002321    1.74    114.60   
     5. A(H   2,C   0,H   3)          115.37 -0.013252    6.16    121.53   
     6. A(F   1,C   0,H   2)          111.31 -0.002933    3.18    114.49   
     7. I(F   1,H   3,H   2,C   0)    -45.30 -0.011056    9.03    -36.27   
    ----------------------------------------------------------------------------

         *************************************************************
         *                GEOMETRY OPTIMIZATION CYCLE   3            *
         *************************************************************
---------------------------------
CARTESIAN COORDINATES (ANGSTROEM)
---------------------------------
  C     -0.087874    0.001257    0.172366
  F      1.223423   -0.003715   -0.049280
  H     -0.569296   -0.941063   -0.055303
  H     -0.566253    0.943520   -0.066783

----------------------------
CARTESIAN COORDINATES (A.U.)
----------------------------
  NO LB      ZA    FRAG     MASS         X           Y           Z
   0 C     6.0000    0    12.011   -0.166058    0.002376    0.325724
   1 F     9.0000    0    18.998    2.311935   -0.007021   -0.093125
   2 H     1.0000    0     1.008   -1.075814   -1.778350   -0.104508
   3 H     1.0000    0     1.008   -1.070063    1.782995   -0.126202

--------------------------------
INTERNAL COORDINATES (ANGSTROEM)
--------------------------------
 C      0   0   0     0.000000000000     0.00000000     0.00000000
 F      1   0   0     1.329907060218     0.00000000     0.00000000
 H      1   2   0     1.082389771913   113.59333067     0.00000000
 H      1   2   3     1.083465645091   113.69159086   216.43461186

---------------------------
INTERNAL COORDINATES (A.U.)
---------------------------
 C      0   0   0     0.000000000000     0.00000000     0.00000000
 F      1   0   0     2.513160127379     0.00000000     0.00000000
 H      1   2   0     2.045420239073   113.59333067     0.00000000
 H      1   2   3     2.047453344734   113.69159086   216.43461186

------------------------------------------------------------------------------
                   ___                                                        
                  /   \      - P O W E R E D   B Y -                         
                 /     \                                                     
                 |  |  |   _    _      __       _____    __    __             
                 |  |  |  | |  | |    /  \     |  _  \  |  |  /  |          
                  \  \/   | |  | |   /    \    | | | |  |  | /  /          
                 / \  \   | |__| |  /  /\  \   | |_| |  |  |/  /          
                |  |  |   |  __  | /  /__\  \  |    /   |      \           
                |  |  |   | |  | | |   __   |  |    \   |  |\   \          
                \     /   | |  | | |  |  |  |  | |\  \  |  | \   \       
                 \___/    |_|  |_| |__|  |__|  |_| \__\ |__|  \__/        
                                                                              
                      - O R C A' S   B I G   F R I E N D -                    
                                      &                                       
                       - I N T E G R A L  F E E D E R -                       
                                                                              
 v1 FN, 2020, v2 2021                                                         
------------------------------------------------------------------------------


Reading SHARK input file C-F-H-H_radical_opt.SHARKINP.tmp ... ok
----------------------
SHARK INTEGRAL PACKAGE
----------------------

Number of atoms                             ...      4
Number of basis functions                   ...    132
Number of shells                            ...     56
Maximum angular momentum                    ...      3
Integral batch strategy                     ... SHARK/LIBINT Hybrid
RI-J (if used) integral strategy            ... SPLIT-RIJ (Revised 2003 algorithm where possible)
Printlevel                                  ...      1
Contraction scheme used                     ... SEGMENTED contraction
Coulomb Range Separation                    ... NOT USED
Exchange Range Separation                   ... NOT USED
Finite Nucleus Model                        ... NOT USED
Auxiliary Coulomb fitting basis             ... NOT available
Auxiliary J/K fitting basis                 ... NOT available
Auxiliary Correlation fitting basis         ... NOT available
Auxiliary 'external' fitting basis          ... NOT available
Integral threshold                          ...     2.500000e-11
Primitive cut-off                           ...     2.500000e-12
Primitive pair pre-selection threshold      ...     2.500000e-12

Calculating pre-screening integrals         ... done (  0.0 sec) Dimension = 56
Organizing shell pair data                  ... done (  0.0 sec)
Shell pair information
Total number of shell pairs                 ...      1596
Shell pairs after pre-screening             ...      1531
Total number of primitive shell pairs       ...      3145
Primitive shell pairs kept                  ...      2671
          la=0 lb=0:    412 shell pairs
          la=1 lb=0:    470 shell pairs
          la=1 lb=1:    136 shell pairs
          la=2 lb=0:    238 shell pairs
          la=2 lb=1:    128 shell pairs
          la=2 lb=2:     36 shell pairs
          la=3 lb=0:     60 shell pairs
          la=3 lb=1:     32 shell pairs
          la=3 lb=2:     16 shell pairs
          la=3 lb=3:      3 shell pairs

Calculating one electron integrals          ... done (  0.0 sec)
Calculating Nuclear repulsion               ... done (  0.0 sec) ENN=     32.337697020786 Eh

SHARK setup successfully completed in   0.2 seconds

Maximum memory used throughout the entire GTOINT-calculation: 15.6 MB

Diagonalization of the overlap matrix:
Smallest eigenvalue                        ... 1.920e-04
Time for diagonalization                   ...    0.006 sec
Threshold for overlap eigenvalues          ... 1.000e-08
Number of eigenvalues below threshold      ... 0
Time for construction of square roots      ...    0.003 sec
Total time needed                          ...    0.009 sec

-------------------
DFT GRID GENERATION
-------------------

General Integration Accuracy     IntAcc      ... 4.388
Radial Grid Type                 RadialGrid  ... OptM3 with GC (2021)
Angular Grid (max. ang.)         AngularGrid ... 4 (Lebedev-302)
Angular grid pruning method      GridPruning ... 4 (adaptive)
Weight generation scheme         WeightScheme... Becke
Basis function cutoff            BFCut       ... 1.0000e-11
Integration weight cutoff        WCut        ... 1.0000e-14
Angular grids for H and He will be reduced by one unit
Partially contracted basis set               ... off
Rotationally invariant grid construction     ... off

Total number of grid points                  ...    19950
Total number of batches                      ...      314
Average number of points per batch           ...       63
Average number of grid points per atom       ...     4988
Time for grid setup =    0.175 sec

--------------
SCF ITERATIONS
--------------
ITER       Energy         Delta-E        Max-DP      RMS-DP      [F,P]     Damp
               ***  Starting incremental Fock matrix formation  ***
  0   -138.9823160686   0.000000000000 0.00227569  0.00006762  0.0148527 0.7000
  1   -138.9829415455  -0.000625476937 0.00210366  0.00006202  0.0111979 0.7000
                               ***Turning on DIIS***
  2   -138.9834373349  -0.000495789327 0.00583009  0.00016360  0.0082271 0.0000
  3   -138.9847495153  -0.001312180488 0.00206443  0.00003548  0.0021087 0.0000
  4   -138.9847972112  -0.000047695896 0.00167673  0.00002747  0.0009556 0.0000
  5   -138.9848117253  -0.000014514044 0.00039382  0.00000793  0.0003542 0.0000
  6   -138.9848133851  -0.000001659862 0.00007936  0.00000210  0.0001950 0.0000
  7   -138.9848135498  -0.000000164655 0.00002895  0.00000084  0.0001392 0.0000
  8   -138.9848136113  -0.000000061473 0.00000730  0.00000020  0.0000268 0.0000
  9   -138.9848136139  -0.000000002620 0.00000159  0.00000004  0.0000033 0.0000
                            ***DIIS convergence achieved***

               *****************************************************
               *                     SUCCESS                       *
               *           SCF CONVERGED AFTER  10 CYCLES          *
               *****************************************************

Total Energy       :         -138.98481361 Eh           -3781.96905 eV
  Last Energy change         ...    1.1937e-11  Tolerance :   1.0000e-08
  Last MAX-Density change    ...    1.2553e-06  Tolerance :   1.0000e-07
             **** THE GBW FILE WAS UPDATED (C-F-H-H_radical_opt.gbw) ****
             **** DENSITY C-F-H-H_radical_opt.scfp WAS UPDATED ****
             **** ENERGY FILE WAS UPDATED (C-F-H-H_radical_opt.en.tmp) ****
----------------------
UHF SPIN CONTAMINATION
----------------------

Warning: in a DFT calculation there is little theoretical justification to 
         calculate <S**2> as in Hartree-Fock theory. We will do it anyways
         but you should keep in mind that the values have only limited relevance

Expectation value of <S**2>     :     0.753863
Ideal value S*(S+1) for S=0.5   :     0.750000
Deviation                       :     0.003863

             **** THE GBW FILE WAS UPDATED (C-F-H-H_radical_opt.gbw) ****
             **** DENSITY C-F-H-H_radical_opt.scfp WAS UPDATED ****
Total SCF time: 0 days 0 hours 0 min 14 sec 

Maximum memory used throughout the entire SCF-calculation: 240.9 MB

-------------------------   --------------------
FINAL SINGLE POINT ENERGY      -138.984813613882
-------------------------   --------------------

------------------------------------------------------------------------------
                         ORCA SCF GRADIENT CALCULATION
------------------------------------------------------------------------------

Gradient of the Kohn-Sham DFT energy:
Kohn-Sham wavefunction type      ... UKS
Hartree-Fock exchange scaling    ...    0.250
Number of operators              ...    2
Number of atoms                  ...    4
Basis set dimensions             ...  132
Integral neglect threshold       ... 2.5e-11
Integral primitive cutoff        ... 2.5e-12
SHARK Integral package           ... ON

Nuc. rep. gradient       (SHARK) ... done (  0.0 sec)
HCore & Overlap gradient (SHARK) ... done (  0.0 sec)
Two-Electron gradient    (SHARK) ... done (  4.5 sec)
Exchange-correlation gradient    ... done

------------------
CARTESIAN GRADIENT
------------------

   1   C   :    0.002630378   -0.000437461    0.006741860
   2   F   :   -0.003428843   -0.000121279   -0.001481078
   3   H   :    0.000638632    0.001704753   -0.002580349
   4   H   :    0.000159833   -0.001146013   -0.002680434

Difference to translation invariance:
           :   -0.0000000000   -0.0000000000   -0.0000000000

Difference to rotation invariance:
           :    0.0000007136   -0.0000113371    0.0000049712

Norm of the cartesian gradient     ...    0.0092208487
RMS gradient                       ...    0.0026618298
MAX gradient                       ...    0.0067418604

-------
TIMINGS
-------

Total SCF gradient time            ...        5.447 sec

[...]
                Q:ISTP=   13 I=  0.5 Q=  0.0000 barn     
 -----------------------------------------------------------
 Solving for nuclear perturbation:
Forming RHS of the CP-SCF equations         ... 
Calc. nucleus orbit integrals (SHARK)       ... done

------------------------------------------------------------------------------
                           ORCA CP-SCF CALCULATION
------------------------------------------------------------------------------

Input orbitals are from        ... C-F-H-H_radical_EPR.gbw
Input Perturbation             ... C-F-H-H_radical_EPR.pin.tmp
Wavefunction output            ... C-F-H-H_radical_EPR.pout.tmp
Perturbation mode              ... Imaginary perturbation
Solver                         ... POPLE
Max. number of iterations      ... 64
Convergence tolerance          ... 1.000e-03
Integral handling              ... Direct
DFT GridXC                     ... 1
Number of perturbations        ... 3
Number of operators            ... 2
Orbital ranges used for CP-SCF:
 Operator 0:  Orbitals   0...  8  to   9...131
 Operator 1:  Orbitals   0...  7  to   8...131
Variables per perturbation     ... 2099
DFT calculation                         ... on
XC functional terms                     ... off
Hybrid DFT                              ... on
   Exchange mixing (SCF)                ...  0.250
   Exchange mixing (CP-SCF)             ...  0.250
   GGA exch. scaling(SCF)               ...  0.750
   GGA exch. scaling (CP-SCF)           ...  0.750
   GGA corr. scaling (SCF)              ...  1.000
   GGA corr. scaling (CP-SCF)           ...  1.000

CP-SCF GRID
-----------

General Integration Accuracy     IntAcc      ... 3.467
Radial Grid Type                 RadialGrid  ... OptM3 with GC (2021)
Angular Grid (max. ang.)         AngularGrid ... 1 (Lebedev-50)
Angular grid pruning method      GridPruning ... 4 (adaptive)
Weight generation scheme         WeightScheme... Becke
Basis function cutoff            BFCut       ... 1.0000e-11
Integration weight cutoff        WCut        ... 1.0000e-14
Angular grids for H and He will be reduced by one unit
Partially contracted basis set               ... off
Rotationally invariant grid construction     ... off

Total number of grid points                  ...     2942
Total number of batches                      ...       48
Average number of points per batch           ...       61
Average number of grid points per atom       ...      736

Memory available               ... 941.7 MB
Memory needed per perturbation ...   2.6 MB
Perturbations treated per batch... 3
Number of batches              ... 1
     CP-SCF ITERATION   0:   1.1393e+00 (   2.3 sec   0/  3 done)
     CP-SCF ITERATION   1:   5.1108e-02 (   2.3 sec   0/  3 done)
     CP-SCF ITERATION   2:   5.2993e-03 (   2.3 sec   1/  3 done)
     CP-SCF ITERATION   3:   3.1504e-04 (   1.9 sec   3/  3 done)
                    *** THE CP-SCF HAS CONVERGED ***

Forming final perturbed densities           ... done
Transforming perturbed density to AO basis  ... done

 Raw HFC matrix (all values in MHz): 
 -----------------------------------
                68.7818               0.0373               4.9147
                 0.0373              71.9857               1.4336
                 4.9156               1.4336             307.9581

 A(FC)         149.5402             149.5402             149.5402
 A(SD)         -80.7133             -77.8164             158.5297
 A(ORB+DIA)     -0.1460               0.2533              -0.0020    A(PC) =   0.0351
 A(ORB)         -0.1474               0.2523              -0.0020    A(PC) =   0.0343
 A(DIA)          0.0014               0.0009              -0.0001    A(PC) =   0.0007
             ----------           ----------           ----------
 A(Tot)         68.6808              71.9771             308.0678    A(iso)=  149.5752
 Orientation: 
  X           0.9997866           -0.0022677           -0.0205351
  Y          -0.0023929           -0.9999787           -0.0060744
  Z          -0.0205209            0.0061222           -0.9997707

Notes:  (1) The A matrix conforms to the "SAI" spin Hamiltonian convention.
        (2) Tensor is right-handed.

 -----------------------------------------------------------
 Nucleus   2H : A:ISTP=    1 I=  0.5 P=533.5514 MHz/au**3
                Q:ISTP=    2 I=  1.0 Q=  0.0029 barn     
 -----------------------------------------------------------
 Solving for nuclear perturbation:
Forming RHS of the CP-SCF equations         ... 
Calc. nucleus orbit integrals (SHARK)       ... done

------------------------------------------------------------------------------
                           ORCA CP-SCF CALCULATION
------------------------------------------------------------------------------

Input orbitals are from        ... C-F-H-H_radical_EPR.gbw
Input Perturbation             ... C-F-H-H_radical_EPR.pin.tmp
Wavefunction output            ... C-F-H-H_radical_EPR.pout.tmp
Perturbation mode              ... Imaginary perturbation
Solver                         ... POPLE
Max. number of iterations      ... 64
Convergence tolerance          ... 1.000e-03
Integral handling              ... Direct
DFT GridXC                     ... 1
Number of perturbations        ... 3
Number of operators            ... 2
Orbital ranges used for CP-SCF:
 Operator 0:  Orbitals   0...  8  to   9...131
 Operator 1:  Orbitals   0...  7  to   8...131
Variables per perturbation     ... 2099
DFT calculation                         ... on
XC functional terms                     ... off
Hybrid DFT                              ... on
   Exchange mixing (SCF)                ...  0.250
   Exchange mixing (CP-SCF)             ...  0.250
   GGA exch. scaling(SCF)               ...  0.750
   GGA exch. scaling (CP-SCF)           ...  0.750
   GGA corr. scaling (SCF)              ...  1.000
   GGA corr. scaling (CP-SCF)           ...  1.000

CP-SCF GRID
-----------

General Integration Accuracy     IntAcc      ... 3.467
Radial Grid Type                 RadialGrid  ... OptM3 with GC (2021)
Angular Grid (max. ang.)         AngularGrid ... 1 (Lebedev-50)
Angular grid pruning method      GridPruning ... 4 (adaptive)
Weight generation scheme         WeightScheme... Becke
Basis function cutoff            BFCut       ... 1.0000e-11
Integration weight cutoff        WCut        ... 1.0000e-14
Angular grids for H and He will be reduced by one unit
Partially contracted basis set               ... off
Rotationally invariant grid construction     ... off

Total number of grid points                  ...     2942
Total number of batches                      ...       48
Average number of points per batch           ...       61
Average number of grid points per atom       ...      736

Memory available               ... 941.5 MB
Memory needed per perturbation ...   2.6 MB
Perturbations treated per batch... 3
Number of batches              ... 1
     CP-SCF ITERATION   0:   7.5371e-02 (   2.3 sec   0/  3 done)
     CP-SCF ITERATION   1:   3.2857e-03 (   2.3 sec   0/  3 done)
     CP-SCF ITERATION   2:   3.2705e-04 (   2.3 sec   3/  3 done)
                    *** THE CP-SCF HAS CONVERGED ***

Forming final perturbed densities           ... done
Transforming perturbed density to AO basis  ... done

 Raw HFC matrix (all values in MHz): 
 -----------------------------------
               -86.1075              30.1134               3.5638
                30.1721             -38.1732               3.3447
                 3.5667               3.3321             -58.4899

 A(FC)         -60.9743             -60.9743             -60.9743
 A(SD)          37.8318               1.9727             -39.8045
 A(ORB+DIA)      0.0983              -0.0008               0.0548    A(PC) =   0.0508
 A(ORB)          0.0929               0.0011               0.0537    A(PC) =   0.0492
 A(DIA)          0.0054              -0.0019               0.0011    A(PC) =   0.0015
             ----------           ----------           ----------
 A(Tot)        -23.0442             -59.0024            -100.7240    A(iso)=  -60.9235
 Orientation: 
  X           0.4333641           -0.0178392            0.9010424
  Y           0.8921054           -0.1333349           -0.4317056
  Z           0.1278417            0.9909105           -0.0418681

Notes:  (1) The A matrix conforms to the "SAI" spin Hamiltonian convention.
        (2) Tensor is right-handed.

 -----------------------------------------------------------
 Nucleus   3H : A:ISTP=    1 I=  0.5 P=533.5514 MHz/au**3
                Q:ISTP=    2 I=  1.0 Q=  0.0029 barn     
 -----------------------------------------------------------
 Solving for nuclear perturbation:
Forming RHS of the CP-SCF equations         ... 
Calc. nucleus orbit integrals (SHARK)       ... done

------------------------------------------------------------------------------
                           ORCA CP-SCF CALCULATION
------------------------------------------------------------------------------

Input orbitals are from        ... C-F-H-H_radical_EPR.gbw
Input Perturbation             ... C-F-H-H_radical_EPR.pin.tmp
Wavefunction output            ... C-F-H-H_radical_EPR.pout.tmp
Perturbation mode              ... Imaginary perturbation
Solver                         ... POPLE
Max. number of iterations      ... 64
Convergence tolerance          ... 1.000e-03
Integral handling              ... Direct
DFT GridXC                     ... 1
Number of perturbations        ... 3
Number of operators            ... 2
Orbital ranges used for CP-SCF:
 Operator 0:  Orbitals   0...  8  to   9...131
 Operator 1:  Orbitals   0...  7  to   8...131
Variables per perturbation     ... 2099
DFT calculation                         ... on
XC functional terms                     ... off
Hybrid DFT                              ... on
   Exchange mixing (SCF)                ...  0.250
   Exchange mixing (CP-SCF)             ...  0.250
   GGA exch. scaling(SCF)               ...  0.750
   GGA exch. scaling (CP-SCF)           ...  0.750
   GGA corr. scaling (SCF)              ...  1.000
   GGA corr. scaling (CP-SCF)           ...  1.000

CP-SCF GRID
-----------

General Integration Accuracy     IntAcc      ... 3.467
Radial Grid Type                 RadialGrid  ... OptM3 with GC (2021)
Angular Grid (max. ang.)         AngularGrid ... 1 (Lebedev-50)
Angular grid pruning method      GridPruning ... 4 (adaptive)
Weight generation scheme         WeightScheme... Becke
Basis function cutoff            BFCut       ... 1.0000e-11
Integration weight cutoff        WCut        ... 1.0000e-14
Angular grids for H and He will be reduced by one unit
Partially contracted basis set               ... off
Rotationally invariant grid construction     ... off

Total number of grid points                  ...     2942
Total number of batches                      ...       48
Average number of points per batch           ...       61
Average number of grid points per atom       ...      736

Memory available               ... 941.5 MB
Memory needed per perturbation ...   2.6 MB
Perturbations treated per batch... 3
Number of batches              ... 1
     CP-SCF ITERATION   0:   7.5380e-02 (   2.3 sec   0/  3 done)
     CP-SCF ITERATION   1:   3.2850e-03 (   2.3 sec   0/  3 done)
     CP-SCF ITERATION   2:   3.2652e-04 (   2.3 sec   3/  3 done)
                    *** THE CP-SCF HAS CONVERGED ***

Forming final perturbed densities           ... done
Transforming perturbed density to AO basis  ... done

 Raw HFC matrix (all values in MHz): 
 -----------------------------------
               -86.3793             -29.8496               3.9152
               -29.9083             -37.9864              -3.6110
                 3.9188              -3.5985             -58.4047

 A(FC)         -60.9742             -60.9742             -60.9742
 A(SD)          37.8319               1.9729             -39.8047
 A(ORB+DIA)      0.0983              -0.0008               0.0548    A(PC) =   0.0508
 A(ORB)          0.0929               0.0011               0.0537    A(PC) =   0.0492
 A(DIA)          0.0054              -0.0019               0.0011    A(PC) =   0.0015
             ----------           ----------           ----------
 A(Tot)        -23.0441             -59.0021            -100.7242    A(iso)=  -60.9235
 Orientation: 
  X          -0.4293211           -0.0172065            0.9029880
  Y           0.8924280            0.1455352            0.4270735
  Z          -0.1387650            0.9892034           -0.0471258

Notes:  (1) The A matrix conforms to the "SAI" spin Hamiltonian convention.
        (2) Tensor is right-handed.

 -----------------------------------------------------------
 Nucleus   1F : A:ISTP=   19 I=  0.5 P=502.2248 MHz/au**3
                Q:ISTP=   19 I=  0.5 Q=  0.0000 barn     
 -----------------------------------------------------------
 Solving for nuclear perturbation:
Forming RHS of the CP-SCF equations         ... 
Calc. nucleus orbit integrals (SHARK)       ... done

------------------------------------------------------------------------------
                           ORCA CP-SCF CALCULATION
------------------------------------------------------------------------------

Input orbitals are from        ... C-F-H-H_radical_EPR.gbw
Input Perturbation             ... C-F-H-H_radical_EPR.pin.tmp
Wavefunction output            ... C-F-H-H_radical_EPR.pout.tmp
Perturbation mode              ... Imaginary perturbation
Solver                         ... POPLE
Max. number of iterations      ... 64
Convergence tolerance          ... 1.000e-03
Integral handling              ... Direct
DFT GridXC                     ... 1
Number of perturbations        ... 3
Number of operators            ... 2
Orbital ranges used for CP-SCF:
 Operator 0:  Orbitals   0...  8  to   9...131
 Operator 1:  Orbitals   0...  7  to   8...131
Variables per perturbation     ... 2099
DFT calculation                         ... on
XC functional terms                     ... off
Hybrid DFT                              ... on
   Exchange mixing (SCF)                ...  0.250
   Exchange mixing (CP-SCF)             ...  0.250
   GGA exch. scaling(SCF)               ...  0.750
   GGA exch. scaling (CP-SCF)           ...  0.750
   GGA corr. scaling (SCF)              ...  1.000
   GGA corr. scaling (CP-SCF)           ...  1.000

CP-SCF GRID
-----------

General Integration Accuracy     IntAcc      ... 3.467
Radial Grid Type                 RadialGrid  ... OptM3 with GC (2021)
Angular Grid (max. ang.)         AngularGrid ... 1 (Lebedev-50)
Angular grid pruning method      GridPruning ... 4 (adaptive)
Weight generation scheme         WeightScheme... Becke
Basis function cutoff            BFCut       ... 1.0000e-11
Integration weight cutoff        WCut        ... 1.0000e-14
Angular grids for H and He will be reduced by one unit
Partially contracted basis set               ... off
Rotationally invariant grid construction     ... off

Total number of grid points                  ...     2942
Total number of batches                      ...       48
Average number of points per batch           ...       61
Average number of grid points per atom       ...      736

Memory available               ... 941.5 MB
Memory needed per perturbation ...   2.6 MB
Perturbations treated per batch... 3
Number of batches              ... 1
     CP-SCF ITERATION   0:   3.1261e+00 (   2.5 sec   0/  3 done)
     CP-SCF ITERATION   1:   1.6181e-01 (   2.3 sec   0/  3 done)
     CP-SCF ITERATION   2:   1.3235e-02 (   2.3 sec   0/  3 done)
     CP-SCF ITERATION   3:   1.0947e-03 (   2.3 sec   1/  3 done)
     CP-SCF ITERATION   4:   8.2745e-05 (   1.9 sec   3/  3 done)
                    *** THE CP-SCF HAS CONVERGED ***

Forming final perturbed densities           ... done
Transforming perturbed density to AO basis  ... done

 Raw HFC matrix (all values in MHz): 
 -----------------------------------
               -96.0206               0.1001               0.8339
                 0.1001             -54.1302               4.3872
                 0.8376               4.3872             662.7223

 A(FC)         170.5138             170.5138             170.5138
 A(SD)        -223.9378            -268.7008             492.6386
 A(ORB+DIA)     -0.7328               2.1652              -0.4024    A(PC) =   0.3433
 A(ORB)         -0.7342               2.1621              -0.4022    A(PC) =   0.3419
 A(DIA)          0.0014               0.0031              -0.0002    A(PC) =   0.0014
             ----------           ----------           ----------
 A(Tot)        -54.1568             -96.0217             662.7500    A(iso)=  170.8572
 Orientation: 
  X           0.0022685            0.9999968           -0.0010998
  Y           0.9999787           -0.0022752           -0.0061198
  Z          -0.0061223           -0.0010859           -0.9999807

Notes:  (1) The A matrix conforms to the "SAI" spin Hamiltonian convention.
        (2) Tensor is right-handed.


--------------------------------------------------------------------------------
----------------------------------------------------------------------------
                           ORCA EULER ANGLE PROGRAM
----------------------------------------------------------------------------

Only g-tensor available        -->  using g-tensor as reference tensor

Reference tensor               ...  g

g-tensor ordering              ...  |g_min> --> |gx>
                                    |g_mid> --> |gy>
                                    |g_max> --> |gz>

A- and EFG-tensor ordering     ...  the axes |Ax>, |Qx>, |Ay>, etc. are assigned
                                    such that the Euler rotation is minimal. You
                                    can find the respective eigenvalues as Ax,
                                    EFGx, Ay, etc. in the tables below.
                                    The relation of |Ax>, |Ay>,  etc. to Amin, Amid, etc.
                                    (as printed in the ORCA EPR/NMR CALCULATION Output)
                                    is obtained in the detailed printout.

Euler rotation around          ...  z - y - z
   First rotation              -->  by alpha around z
   Second rotation             -->  by beta around y'
   Third rotation              -->  by gamma around z''
   Positive / Negative angle   -->  clockwise / counterclockwise rotation

Plot EFG-tensors                    (-)
Plot HFC-tensors                    (-)
Detailed Printout                   (-)

-------------------------------------------------------------------------
          Euler rotation of hyperfine tensor to g-tensor
-------------------------------------------------------------------------

-------------------------------------------------------------------
 Atom  |   Alpha    Beta    Gamma   |   Ax       Ay       Az 
       |          [degrees]         |           [MHz]         
-------------------------------------------------------------------
  0C        1.1      0.0      0.0     308.07    68.68    71.98
  2H     -108.0     26.8    109.5     -59.00  -100.72   -23.04
  3H       72.0     26.8    -70.5     -59.00  -100.72   -23.04
  1F        2.3      0.0      0.0     662.75   -96.02   -54.16
-------------------------------------------------------------------


Maximum memory used throughout the entire EPRNMR-calculation: 95.0 MB

Timings for individual modules:

Sum of individual times         ...       81.446 sec (=   1.357 min)
GTO integral calculation        ...        0.200 sec (=   0.003 min)   0.2 %
Spin-Orbit-Coupling Matrices    ...       13.569 sec (=   0.226 min)  16.7 %
SCF iterations                  ...        2.680 sec (=   0.045 min)   3.3 %
EPR/NMR calculation             ...       64.997 sec (=   1.083 min)  79.8 %



                             ****ORCA TERMINATED NORMALLY****
TOTAL RUN TIME: 0 days 0 hours 3 minutes 55 seconds 546 msec

slurmID:    30883862
totalRuntime[s]:    235.592684076
