
                                 *****************
                                 * O   R   C   A *
                                 *****************

                                            #,                                       
                                            ###                                      
                                            ####                                     
                                            #####                                    
                                            ######                                   
                                           ########,                                 
                                     ,,################,,,,,                         
                               ,,#################################,,                 
                          ,,##########################################,,             
                       ,#########################################, ''#####,          
                    ,#############################################,,   '####,        
                  ,##################################################,,,,####,       
                ,###########''''           ''''###############################       
              ,#####''   ,,,,##########,,,,          '''####'''          '####       
            ,##' ,,,,###########################,,,                        '##       
           ' ,,###''''                  '''############,,,                           
         ,,##''                                '''############,,,,        ,,,,,,###''
      ,#''                                            '''#######################'''  
     '                                                          ''''####''''         
             ,#######,   #######,   ,#######,      ##                                
            ,#'     '#,  ##    ##  ,#'     '#,    #''#        ######   ,####,        
            ##       ##  ##   ,#'  ##            #'  '#       #        #'  '#        
            ##       ##  #######   ##           ,######,      #####,   #    #        
            '#,     ,#'  ##    ##  '#,     ,#' ,#      #,         ##   #,  ,#        
             '#######'   ##     ##  '#######'  #'      '#     #####' # '####'        



                  #######################################################
                  #                        -***-                        #
                  #          Department of theory and spectroscopy      #
                  #    Directorship and core code : Frank Neese         #
                  #        Max Planck Institute fuer Kohlenforschung    #
                  #                Kaiser Wilhelm Platz 1               #
                  #                 D-45470 Muelheim/Ruhr               #
                  #                      Germany                        #
                  #                                                     #
                  #                  All rights reserved                #
                  #                        -***-                        #
                  #######################################################


                         Program Version 5.0.4 -  RELEASE  -


 With contributions from (in alphabetic order):
   Daniel Aravena         : Magnetic Suceptibility
   Michael Atanasov       : Ab Initio Ligand Field Theory (pilot matlab implementation)
   Alexander A. Auer      : GIAO ZORA, VPT2 properties, NMR spectrum
   Ute Becker             : Parallelization
   Giovanni Bistoni       : ED, misc. LED, open-shell LED, HFLD
   Martin Brehm           : Molecular dynamics
   Dmytro Bykov           : SCF Hessian
   Vijay G. Chilkuri      : MRCI spin determinant printing, contributions to CSF-ICE
   Dipayan Datta          : RHF DLPNO-CCSD density
   Achintya Kumar Dutta   : EOM-CC, STEOM-CC
   Dmitry Ganyushin       : Spin-Orbit,Spin-Spin,Magnetic field MRCI
   Miquel Garcia          : C-PCM and meta-GGA Hessian, CC/C-PCM, Gaussian charge scheme
   Yang Guo               : DLPNO-NEVPT2, F12-NEVPT2, CIM, IAO-localization
   Andreas Hansen         : Spin unrestricted coupled pair/coupled cluster methods
   Benjamin Helmich-Paris : MC-RPA, TRAH-SCF, COSX integrals
   Lee Huntington         : MR-EOM, pCC
   Robert Izsak           : Overlap fitted RIJCOSX, COSX-SCS-MP3, EOM
   Marcus Kettner         : VPT2
   Christian Kollmar      : KDIIS, OOCD, Brueckner-CCSD(T), CCSD density, CASPT2, CASPT2-K
   Simone Kossmann        : Meta GGA functionals, TD-DFT gradient, OOMP2, MP2 Hessian
   Martin Krupicka        : Initial AUTO-CI
   Lucas Lang             : DCDCAS
   Marvin Lechner         : AUTO-CI (C++ implementation), FIC-MRCC
   Dagmar Lenk            : GEPOL surface, SMD
   Dimitrios Liakos       : Extrapolation schemes; Compound Job, initial MDCI parallelization
   Dimitrios Manganas     : Further ROCIS development; embedding schemes
   Dimitrios Pantazis     : SARC Basis sets
   Anastasios Papadopoulos: AUTO-CI, single reference methods and gradients
   Taras Petrenko         : DFT Hessian,TD-DFT gradient, ASA, ECA, R-Raman, ABS, FL, XAS/XES, NRVS
   Peter Pinski           : DLPNO-MP2, DLPNO-MP2 Gradient
   Christoph Reimann      : Effective Core Potentials
   Marius Retegan         : Local ZFS, SOC
   Christoph Riplinger    : Optimizer, TS searches, QM/MM, DLPNO-CCSD(T), (RO)-DLPNO pert. Triples
   Tobias Risthaus        : Range-separated hybrids, TD-DFT gradient, RPA, STAB
   Michael Roemelt        : Original ROCIS implementation
   Masaaki Saitow         : Open-shell DLPNO-CCSD energy and density
   Barbara Sandhoefer     : DKH picture change effects
   Avijit Sen             : IP-ROCIS
   Kantharuban Sivalingam : CASSCF convergence, NEVPT2, FIC-MRCI
   Bernardo de Souza      : ESD, SOC TD-DFT
   Georgi Stoychev        : AutoAux, RI-MP2 NMR, DLPNO-MP2 response
   Willem Van den Heuvel  : Paramagnetic NMR
   Boris Wezisla          : Elementary symmetry handling
   Frank Wennmohs         : Technical directorship


 We gratefully acknowledge several colleagues who have allowed us to
 interface, adapt or use parts of their codes:
   Stefan Grimme, W. Hujo, H. Kruse, P. Pracht,  : VdW corrections, initial TS optimization,
                  C. Bannwarth, S. Ehlert          DFT functionals, gCP, sTDA/sTD-DF
   Ed Valeev, F. Pavosevic, A. Kumar             : LibInt (2-el integral package), F12 methods
   Garnet Chan, S. Sharma, J. Yang, R. Olivares  : DMRG
   Ulf Ekstrom                                   : XCFun DFT Library
   Mihaly Kallay                                 : mrcc  (arbitrary order and MRCC methods)
   Jiri Pittner, Ondrej Demel                    : Mk-CCSD
   Frank Weinhold                                : gennbo (NPA and NBO analysis)
   Christopher J. Cramer and Donald G. Truhlar   : smd solvation model
   Lars Goerigk                                  : TD-DFT with DH, B97 family of functionals
   V. Asgeirsson, H. Jonsson                     : NEB implementation
   FAccTs GmbH                                   : IRC, NEB, NEB-TS, DLPNO-Multilevel, CI-OPT
                                                   MM, QMMM, 2- and 3-layer-ONIOM, Crystal-QMMM,
                                                   LR-CPCM, SF, NACMEs, symmetry and pop. for TD-DFT,
                                                   nearIR, NL-DFT gradient (VV10), updates on ESD,
                                                   ML-optimized integration grids
   S Lehtola, MJT Oliveira, MAL Marques          : LibXC Library
   Liviu Ungur et al                             : ANISO software


 Your calculation uses the libint2 library for the computation of 2-el integrals
 For citations please refer to: http://libint.valeyev.net

 Your ORCA version has been built with support for libXC version: 5.1.0
 For citations please refer to: https://tddft.org/programs/libxc/

 This ORCA versions uses:
   CBLAS   interface :  Fast vector & matrix operations
   LAPACKE interface :  Fast linear algebra routines
   SCALAPACK package :  Parallel linear algebra routines
   Shared memory     :  Shared parallel matrices
   BLAS/LAPACK       :  OpenBLAS 0.3.15  USE64BITINT DYNAMIC_ARCH NO_AFFINITY SkylakeX SINGLE_THREADED
        Core in use  :  SkylakeX
   Copyright (c) 2011-2014, The OpenBLAS Project


================================================================================

----- Orbital basis set information -----
Your calculation utilizes the basis: aug-cc-pVTZ-J 
  Obtained from the EMSL Basis Set Exchange (bse.pnl.gov) Feb. 2017
  H, C-O : P. F. Provasi, G. A. Aucar, S. P. A. Sauer, J. Chem. Phys. 115, 1324 (2001)
           R. A. Kendall, T. H. Dunning, Jr., R. J. Harrison, J. Chem. Phys. 96, 6796 (1992)
           T. Enevoldsen, J. Oddershede, S. P. A. Sauer, Theor. Chem. Acc. 100, 275 (1998)
           T. H. Dunning, Jr., J. Chem. Phys. 90, 1007 (1989)
       B : P. F. Provasi, S. P. A. Sauer, J. Chem. Phys. 133, 054308 (2010)
           T. Enevoldsen, J. Oddershede, S. P. A. Sauer, Theor. Chem. Acc. 100, 275 (1998)
           T. H. Dunning, Jr., J. Chem. Phys. 90, 1007 (1989)
       F : R. A. Kendall, T. H. Dunning, Jr., R. J. Harrison, J. Chem. Phys. 96, 6796 (1992)
           T. Enevoldsen, J. Oddershede, S. P. A. Sauer, Theor. Chem. Acc. 100, 275 (1998)
           T. H. Dunning, Jr., J. Chem. Phys. 90, 1007 (1989)
           V. Barone, P. F. Provasi, J. E. Peralta, J. P. Snyder, S. P. A. Sauer, R. H. Contreras, J. Phys. Chem. A 107, 4748 (2003)
      Al : D. E. Woon, T. H. Dunning, Jr., J. Chem. Phys. 98, 1358 (1993)
           P. F. Provasi, S. P. A. Sauer, J. Chem. Phys. 133, 054308 (2010)
           T. Enevoldsen, J. Oddershede, S. P. A. Sauer, Theor. Chem. Acc. 100, 275 (1998)
      Si : D. E. Woon, T. H. Dunning, Jr., J. Chem. Phys. 98, 1358 (1993)
           P. F. Provasi, S. P. A. Sauer, J. Chem. Phys. 133, 054308 (2010)
           S. P. A. Sauer, W. T. Raynes, J. Chem. Phys. 113, 3121 (2000)
           S. P. A. Sauer, W. T. Raynes, R. A. Nicholls, J. Chem. Phys. 115, 5994 (2001)
   P, Cl : D. E. Woon, T. H. Dunning, Jr., J. Chem. Phys. 98, 1358 (1993)
           P. F. Provasi, S. P. A. Sauer, J. Chem. Phys. 133, 054308 (2010)
       S : D. E. Woon, T. H. Dunning, Jr., J. Chem. Phys. 98, 1358 (1993)
           P. F. Provasi, G. A. Aucar, S. P. A. Sauer, J. Chem. Phys. 115, 1324 (2001)
   Sc-Zn : E. D. Hedegård, J. Kongsted, S. P. A. Sauer, J. Chem. Theory Comput. 7, 4077 (2011)
           N. B. Balabanov, K. A. Peterson, J. Chem. Phys. 123, 64107 (2005)
      Se : Y. Yu. Rusakov, L. B. Krivdin, S. P. A. Sauer, E. P. Levanova, G. G. Levkovskaya, Magn. Res. Chem. 48, 44-52 (2010)

================================================================================
                                        WARNINGS
                       Please study these warnings very carefully!
================================================================================


WARNING: Geometry Optimization
  ===> : Switching off AutoStart
         For restart on a previous wavefunction, please use MOREAD

INFO   : the flag for use of the SHARK integral package has been found!



***************************************
The coordinates will be read from file: 
***************************************


================================================================================

----- Orbital basis set information -----
Your calculation utilizes the basis: aug-cc-pVTZ-J 
  Obtained from the EMSL Basis Set Exchange (bse.pnl.gov) Feb. 2017
  H, C-O : P. F. Provasi, G. A. Aucar, S. P. A. Sauer, J. Chem. Phys. 115, 1324 (2001)
           R. A. Kendall, T. H. Dunning, Jr., R. J. Harrison, J. Chem. Phys. 96, 6796 (1992)
           T. Enevoldsen, J. Oddershede, S. P. A. Sauer, Theor. Chem. Acc. 100, 275 (1998)
           T. H. Dunning, Jr., J. Chem. Phys. 90, 1007 (1989)
       B : P. F. Provasi, S. P. A. Sauer, J. Chem. Phys. 133, 054308 (2010)
           T. Enevoldsen, J. Oddershede, S. P. A. Sauer, Theor. Chem. Acc. 100, 275 (1998)
           T. H. Dunning, Jr., J. Chem. Phys. 90, 1007 (1989)
       F : R. A. Kendall, T. H. Dunning, Jr., R. J. Harrison, J. Chem. Phys. 96, 6796 (1992)
           T. Enevoldsen, J. Oddershede, S. P. A. Sauer, Theor. Chem. Acc. 100, 275 (1998)
           T. H. Dunning, Jr., J. Chem. Phys. 90, 1007 (1989)
           V. Barone, P. F. Provasi, J. E. Peralta, J. P. Snyder, S. P. A. Sauer, R. H. Contreras, J. Phys. Chem. A 107, 4748 (2003)
      Al : D. E. Woon, T. H. Dunning, Jr., J. Chem. Phys. 98, 1358 (1993)
           P. F. Provasi, S. P. A. Sauer, J. Chem. Phys. 133, 054308 (2010)
           T. Enevoldsen, J. Oddershede, S. P. A. Sauer, Theor. Chem. Acc. 100, 275 (1998)
      Si : D. E. Woon, T. H. Dunning, Jr., J. Chem. Phys. 98, 1358 (1993)
           P. F. Provasi, S. P. A. Sauer, J. Chem. Phys. 133, 054308 (2010)
           S. P. A. Sauer, W. T. Raynes, J. Chem. Phys. 113, 3121 (2000)
           S. P. A. Sauer, W. T. Raynes, R. A. Nicholls, J. Chem. Phys. 115, 5994 (2001)
   P, Cl : D. E. Woon, T. H. Dunning, Jr., J. Chem. Phys. 98, 1358 (1993)
           P. F. Provasi, S. P. A. Sauer, J. Chem. Phys. 133, 054308 (2010)
       S : D. E. Woon, T. H. Dunning, Jr., J. Chem. Phys. 98, 1358 (1993)
           P. F. Provasi, G. A. Aucar, S. P. A. Sauer, J. Chem. Phys. 115, 1324 (2001)
   Sc-Zn : E. D. Hedegård, J. Kongsted, S. P. A. Sauer, J. Chem. Theory Comput. 7, 4077 (2011)
           N. B. Balabanov, K. A. Peterson, J. Chem. Phys. 123, 64107 (2005)
      Se : Y. Yu. Rusakov, L. B. Krivdin, S. P. A. Sauer, E. P. Levanova, G. G. Levkovskaya, Magn. Res. Chem. 48, 44-52 (2010)

================================================================================
                                        WARNINGS
                       Please study these warnings very carefully!
================================================================================


INFO   : the flag for use of the SHARK integral package has been found!

================================================================================
                                       INPUT FILE
================================================================================
NAME = /beegfs/scratch/jdstates/Radical_Geometry/CX3_geometry_calcs/input_files/CX3_radical/C-Cl-Cl-F_radical_IN-PROGRESS/C-Cl-Cl-F_radical.inp
|  1> # Formula: C-Cl-Cl-F_radical
|  2> 
|  3> ! UKS NORI TightSCF PBE0 aug-cc-PVTZ-J xyzfile opt NOPOP
|  4> %base "C-Cl-Cl-F_radical_opt" 
|  5> 
|  6> * xyz 0 2
|  7> C	0.000	0.106	0.397
|  8> Cl	1.494	-0.703	-0.120
|  9> Cl	-1.447	-0.772	-0.119
| 10> F	-0.047	1.369	-0.159
| 11> *
| 12> 
| 13> $new_job
| 14> ! UKS NORI PBE0 aug-cc-PVTZ-J NBO
| 15> %base "C-Cl-Cl-F_radical_EPR"
| 16> 
| 17> *xyzfile 0 2
| 18> 
| 19> %EPRNMR
| 20> 	GTENSOR		TRUE
| 21> 	NUCLEI		= ALL C  {AISO, ADIP, AORB}
| 22> 	NUCLEI		= ALL H  {AISO, ADIP, AORB}
| 23> 	NUCLEI		= ALL F  {AISO, ADIP, AORB}
| 24> 	NUCLEI		= ALL Cl {AISO, ADIP, AORB}
| 25> 	NUCLEI		= ALL Br {AISO, ADIP, AORB}
| 26> 	NUCLEI		= ALL I  {AISO, ADIP, AORB}
| 27> END
| 28> 
| 29> %NBO
| 30> 	NBOKEYLIST = "$NBO NBO NPA AONBO=C PRINT=1 ARCHIVE $END"
| 31> END
| 32> 
| 33>                          ****END OF INPUT****
================================================================================


                 $$$$$$$$$$$$$$$$$$$$$$$$$$$$$$$$$$$$$$$$$$$$$$ 
                 $ THERE ARE  2 JOBS TO BE PROCESSED THIS RUN $
                 $$$$$$$$$$$$$$$$$$$$$$$$$$$$$$$$$$$$$$$$$$$$$$ 




                 $$$$$$$$$$$$$$$$  JOB NUMBER  1 $$$$$$$$$$$$$$


                       *****************************
                       * Geometry Optimization Run *
                       *****************************

Geometry optimization settings:
Update method            Update   .... BFGS
Choice of coordinates    CoordSys .... Z-matrix Internals
Initial Hessian          InHess   .... Almoef's Model

Convergence Tolerances:
Energy Change            TolE     ....  5.0000e-06 Eh
Max. Gradient            TolMAXG  ....  3.0000e-04 Eh/bohr
RMS Gradient             TolRMSG  ....  1.0000e-04 Eh/bohr
Max. Displacement        TolMAXD  ....  4.0000e-03 bohr
RMS Displacement         TolRMSD  ....  2.0000e-03 bohr
Strict Convergence                ....  False
------------------------------------------------------------------------------
                        ORCA OPTIMIZATION COORDINATE SETUP
------------------------------------------------------------------------------

The optimization will be done in new redundant internal coordinates
Making redundant internal coordinates   ...  (new redundants) done
Evaluating the initial hessian          ...  (Almloef) done
Evaluating the coordinates              ...  done
Calculating the B-matrix                .... done
Calculating the G-matrix                .... done
Diagonalizing the G-matrix              .... done
The first mode is                       ....    1
The number of degrees of freedom        ....    6

    -----------------------------------------------------------------
                    Redundant Internal Coordinates


    -----------------------------------------------------------------
         Definition                    Initial Value    Approx d2E/dq
    -----------------------------------------------------------------
      1. B(Cl  1,C   0)                  1.7759         0.339674   
      2. B(Cl  2,C   0)                  1.7694         0.347815   
      3. B(F   3,C   0)                  1.3808         0.537897   
      4. A(Cl  1,C   0,F   3)          109.1535         0.393177   
      5. A(Cl  2,C   0,F   3)          107.9758         0.394812   
      6. A(Cl  1,C   0,Cl  2)          112.1495         0.384560   
      7. I(Cl  1,F   3,Cl  2,C   0)    -53.1013         0.006837   
    -----------------------------------------------------------------

Number of atoms                         .... 4
Number of degrees of freedom            .... 7

         *************************************************************
         *                GEOMETRY OPTIMIZATION CYCLE   1            *
         *************************************************************
---------------------------------
CARTESIAN COORDINATES (ANGSTROEM)
---------------------------------
  C      0.000000    0.106000    0.397000
  Cl     1.494000   -0.703000   -0.120000
  Cl    -1.447000   -0.772000   -0.119000
  F     -0.047000    1.369000   -0.159000

----------------------------
CARTESIAN COORDINATES (A.U.)
----------------------------
  NO LB      ZA    FRAG     MASS         X           Y           Z
   0 C     6.0000    0    12.011    0.000000    0.200311    0.750221
   1 Cl   17.0000    0    35.453    2.823251   -1.328477   -0.226767
   2 Cl   17.0000    0    35.453   -2.734434   -1.458869   -0.224877
   3 F     9.0000    0    18.998   -0.088817    2.587035   -0.300466

--------------------------------
INTERNAL COORDINATES (ANGSTROEM)
--------------------------------
 C      0   0   0     0.000000000000     0.00000000     0.00000000
 Cl     1   0   0     1.775895830278     0.00000000     0.00000000
 Cl     1   2   0     1.769448784226   112.14946574     0.00000000
 F      1   2   3     1.380765729586   109.15350039   240.38852504

---------------------------
INTERNAL COORDINATES (A.U.)
---------------------------
 C      0   0   0     0.000000000000     0.00000000     0.00000000
 Cl     1   0   0     3.355956761599     0.00000000     0.00000000
 Cl     1   2   0     3.343773610188   112.14946574     0.00000000
 F      1   2   3     2.609269084022   109.15350039   240.38852504

---------------------
BASIS SET INFORMATION
---------------------
There are 3 groups of distinct atoms

 Group   1 Type C   : 15s6p3d1f contracted to 9s5p3d1f pattern {711111111/21111/111/1}
 Group   2 Type Cl  : 32s15p6d1f contracted to 10s7p6d1f pattern {121211111111/5511111/111111/1}
 Group   3 Type F   : 15s6p3d1f contracted to 9s5p3d1f pattern {711111111/21111/111/1}

Atom   0C    basis set group =>   1
Atom   1Cl   basis set group =>   2
Atom   2Cl   basis set group =>   2
Atom   3F    basis set group =>   3
------------------------------------------------------------------------------
                           ORCA GTO INTEGRAL CALCULATION
------------------------------------------------------------------------------
------------------------------------------------------------------------------
                   ___                                                        
                  /   \      - P O W E R E D   B Y -                         
                 /     \                                                     
                 |  |  |   _    _      __       _____    __    __             
                 |  |  |  | |  | |    /  \     |  _  \  |  |  /  |          
                  \  \/   | |  | |   /    \    | | | |  |  | /  /          
                 / \  \   | |__| |  /  /\  \   | |_| |  |  |/  /          
                |  |  |   |  __  | /  /__\  \  |    /   |      \           
                |  |  |   | |  | | |   __   |  |    \   |  |\   \          
                \     /   | |  | | |  |  |  |  | |\  \  |  | \   \       
                 \___/    |_|  |_| |__|  |__|  |_| \__\ |__|  \__/        
                                                                              
                      - O R C A' S   B I G   F R I E N D -                    
                                      &                                       
                       - I N T E G R A L  F E E D E R -                       
                                                                              
 v1 FN, 2020, v2 2021                                                         
------------------------------------------------------------------------------


Reading SHARK input file C-Cl-Cl-F_radical_opt.SHARKINP.tmp ... ok
----------------------
SHARK INTEGRAL PACKAGE
----------------------

Number of atoms                             ...      4
Number of basis functions                   ...    266
Number of shells                            ...    110
Maximum angular momentum                    ...      3
Integral batch strategy                     ... SHARK/LIBINT Hybrid
RI-J (if used) integral strategy            ... SPLIT-RIJ (Revised 2003 algorithm where possible)
Printlevel                                  ...      1
Contraction scheme used                     ... PARTIAL GENERAL contraction
Coulomb Range Separation                    ... NOT USED
Exchange Range Separation                   ... NOT USED
Finite Nucleus Model                        ... NOT USED
Auxiliary Coulomb fitting basis             ... NOT available
Auxiliary J/K fitting basis                 ... NOT available
Auxiliary Correlation fitting basis         ... NOT available
Auxiliary 'external' fitting basis          ... NOT available
Integral threshold                          ...     2.500000e-11
Primitive cut-off                           ...     2.500000e-12
Primitive pair pre-selection threshold      ...     2.500000e-12

Calculating pre-screening integrals         ... done (  0.0 sec) Dimension = 110
Calculating pre-screening integrals (ORCA)  ... done (  0.1 sec) Dimension = 84
Organizing shell pair data                  ... done (  0.0 sec)
Shell pair information
Total number of shell pairs                 ...      6105
Shell pairs after pre-screening             ...      4533
Total number of primitive shell pairs       ...      7794
Primitive shell pairs kept                  ...      5403
          la=0 lb=0:   1053 shell pairs
          la=1 lb=0:   1283 shell pairs
          la=1 lb=1:    389 shell pairs
          la=2 lb=0:    806 shell pairs
          la=2 lb=1:    468 shell pairs
          la=2 lb=2:    154 shell pairs
          la=3 lb=0:    192 shell pairs
          la=3 lb=1:    110 shell pairs
          la=3 lb=2:     68 shell pairs
          la=3 lb=3:     10 shell pairs

Calculating one electron integrals          ... done (  0.0 sec)
Calculating Nuclear repulsion               ... done (  0.0 sec) ENN=    196.576477313103 Eh

SHARK setup successfully completed in   0.4 seconds

Maximum memory used throughout the entire GTOINT-calculation: 47.1 MB
-------------------------------------------------------------------------------
                                 ORCA SCF
-------------------------------------------------------------------------------

------------
SCF SETTINGS
------------
Hamiltonian:
 Density Functional     Method          .... DFT(GTOs)
 Exchange Functional    Exchange        .... PBE
   PBE kappa parameter   XKappa         ....  0.804000
   PBE mue parameter    XMuePBE         ....  0.219520
 Correlation Functional Correlation     .... PBE
   PBE beta parameter  CBetaPBE         ....  0.066725
 LDA part of GGA corr.  LDAOpt          .... PW91-LDA
 Gradients option       PostSCFGGA      .... off
 Hybrid DFT is turned on
   Fraction HF Exchange ScalHFX         ....  0.250000
   Scaling of DF-GGA-X  ScalDFX         ....  0.750000
   Scaling of DF-GGA-C  ScalDFC         ....  1.000000
   Scaling of DF-LDA-C  ScalLDAC        ....  1.000000
   Perturbative correction              ....  0.000000
   Density functional embedding theory  .... OFF
   NL short-range parameter             ....  6.900000


General Settings:
 Integral files         IntName         .... C-Cl-Cl-F_radical_opt
 Hartree-Fock type      HFTyp           .... UHF
 Total Charge           Charge          ....    0
 Multiplicity           Mult            ....    2
 Number of Electrons    NEL             ....   49
 Basis Dimension        Dim             ....  228
 Nuclear Repulsion      ENuc            ....    196.5764773131 Eh

Convergence Acceleration:
 DIIS                   CNVDIIS         .... on
   Start iteration      DIISMaxIt       ....    12
   Startup error        DIISStart       ....  0.200000
   # of expansion vecs  DIISMaxEq       ....     5
   Bias factor          DIISBfac        ....   1.050
   Max. coefficient     DIISMaxC        ....  10.000
 Trust-Rad. Augm. Hess. CNVTRAH         .... auto
   Auto Start mean grad. ratio tolernc. ....  1.125000
   Auto Start start iteration           ....    20
   Auto Start num. interpolation iter.  ....    10
   Max. Number of Micro iterations      ....    16
   Max. Number of Macro iterations      .... Maxiter - #DIIS iter
   Number of Davidson start vectors     ....     2
   Converg. threshold I  (grad. norm)   ....   1.000e-05
   Converg. threshold II (energy diff.) ....   1.000e-08
   Grad. Scal. Fac. for Micro threshold ....   0.100
   Minimum threshold for Micro iter.    ....   0.010
   NR start threshold (gradient norm)   ....   0.001
   Initial trust radius                 ....   0.400
   Minimum AH scaling param. (alpha)    ....   1.000
   Maximum AH scaling param. (alpha)    .... 1000.000
   Orbital update algorithm             .... Taylor
   White noise on init. David. guess    .... on
   Maximum white noise                  ....   0.010
   Quad. conv. algorithm                .... NR
 SOSCF                  CNVSOSCF        .... off
 Level Shifting         CNVShift        .... on
   Level shift para.    LevelShift      ....    0.2500
   Turn off err/grad.   ShiftErr        ....    0.0010
 Zerner damping         CNVZerner       .... off
 Static damping         CNVDamp         .... on
   Fraction old density DampFac         ....    0.7000
   Max. Damping (<1)    DampMax         ....    0.9800
   Min. Damping (>=0)   DampMin         ....    0.0000
   Turn off err/grad.   DampErr         ....    0.1000
 Fernandez-Rico         CNVRico         .... off

SCF Procedure:
 Maximum # iterations   MaxIter         ....   125
 SCF integral mode      SCFMode         .... Direct
   Integral package                     .... SHARK and LIBINT hybrid scheme
 Reset frequency        DirectResetFreq ....    20
 Integral Threshold     Thresh          ....  2.500e-11 Eh
 Primitive CutOff       TCut            ....  2.500e-12 Eh

Convergence Tolerance:
 Convergence Check Mode ConvCheckMode   .... Total+1el-Energy
 Convergence forced     ConvForced      .... 0
 Energy Change          TolE            ....  1.000e-08 Eh
 1-El. energy change                    ....  1.000e-05 Eh
 DIIS Error             TolErr          ....  5.000e-07


Diagonalization of the overlap matrix:
Smallest eigenvalue                        ... 7.690e-05
Time for diagonalization                   ...    0.013 sec
Threshold for overlap eigenvalues          ... 1.000e-08
Number of eigenvalues below threshold      ... 0
Time for construction of square roots      ...    0.006 sec
Total time needed                          ...    0.020 sec

Time for model grid setup =    0.105 sec

------------------------------
INITIAL GUESS: MODEL POTENTIAL
------------------------------
Loading Hartree-Fock densities                     ... done
Calculating cut-offs                               ... done
Initializing the effective Hamiltonian             ... done
Setting up the integral package (SHARK)            ... done
Starting the Coulomb interaction                   ... done (   0.1 sec)
Reading the grid                                   ... done
Mapping shells                                     ... done
Starting the XC term evaluation                    ... done (   0.1 sec)
  promolecular density results
     # of electrons  =     49.000035396
     EX              =    -69.822013310
     EC              =     -1.845295629
     EX+EC           =    -71.667308939
Transforming the Hamiltonian                       ... done (   0.0 sec)
Diagonalizing the Hamiltonian                      ... done (   0.0 sec)
Back transforming the eigenvectors                 ... done (   0.0 sec)
Now organizing SCF variables                       ... done
                      ------------------
                      INITIAL GUESS DONE (   0.3 sec)
                      ------------------
-------------------
DFT GRID GENERATION
-------------------

General Integration Accuracy     IntAcc      ... 4.388
Radial Grid Type                 RadialGrid  ... OptM3 with GC (2021)
Angular Grid (max. ang.)         AngularGrid ... 4 (Lebedev-302)
Angular grid pruning method      GridPruning ... 4 (adaptive)
Weight generation scheme         WeightScheme... Becke
Basis function cutoff            BFCut       ... 1.0000e-11
Integration weight cutoff        WCut        ... 1.0000e-14
Angular grids for H and He will be reduced by one unit
Partially contracted basis set               ... off
Rotationally invariant grid construction     ... off

Total number of grid points                  ...    28221
Total number of batches                      ...      443
Average number of points per batch           ...       63
Average number of grid points per atom       ...     7055
Time for grid setup =    0.323 sec

--------------
SCF ITERATIONS
--------------
ITER       Energy         Delta-E        Max-DP      RMS-DP      [F,P]     Damp
               ***  Starting incremental Fock matrix formation  ***
  0  -1057.9048987035   0.000000000000 0.02235717  0.00034825  0.0827260 0.7000
  1  -1057.9181964394  -0.013297735881 0.01546593  0.00023978  0.0563699 0.7000
                               ***Turning on DIIS***
  2  -1057.9233042500  -0.005107810626 0.03571440  0.00052882  0.0388775 0.0000
  3  -1057.9349022147  -0.011597964752 0.01181164  0.00010446  0.0088711 0.0000
  4  -1057.9359125817  -0.001010366937 0.00631769  0.00005367  0.0071145 0.0000
  5  -1057.9364596427  -0.000547061007 0.00345085  0.00003296  0.0023627 0.0000
  6  -1057.9365526967  -0.000093054062 0.00166351  0.00001965  0.0014275 0.0000
  7  -1057.9365897328  -0.000037036012 0.00162317  0.00002296  0.0007503 0.0000
  8  -1057.9366091361  -0.000019403328 0.00034682  0.00000539  0.0001628 0.0000
  9  -1057.9366105400  -0.000001403942 0.00008123  0.00000132  0.0000601 0.0000
 10  -1057.9366106684  -0.000000128349 0.00005535  0.00000065  0.0000319 0.0000
 11  -1057.9366106958  -0.000000027400 0.00001241  0.00000020  0.0000121 0.0000
 12  -1057.9366106986  -0.000000002814 0.00001169  0.00000013  0.0000082 0.0000
 13  -1057.9366107000  -0.000000001422 0.00000185  0.00000004  0.0000057 0.0000
 14  -1057.9366107001  -0.000000000118 0.00000217  0.00000003  0.0000019 0.0000
                 **** Energy Check signals convergence ****

               *****************************************************
               *                     SUCCESS                       *
               *           SCF CONVERGED AFTER  15 CYCLES          *
               *****************************************************


----------------
TOTAL SCF ENERGY
----------------

Total Energy       :        -1057.93661070 Eh          -28787.91873 eV

Components:
Nuclear Repulsion  :          196.57647731 Eh            5349.11789 eV
Electronic Energy  :        -1254.51308801 Eh          -34137.03662 eV
One Electron Energy:        -1852.06855683 Eh          -50397.34758 eV
Two Electron Energy:          597.55546882 Eh           16260.31096 eV

Virial components:
Potential Energy   :        -2114.00582211 Eh          -57525.02294 eV
Kinetic Energy     :         1056.06921141 Eh           28737.10421 eV
Virial Ratio       :            2.00176825


DFT components:
N(Alpha)           :       24.999996813972 electrons
N(Beta)            :       24.000003258190 electrons
N(Total)           :       49.000000072161 electrons
E(X)               :      -52.447451032414 Eh       
E(C)               :       -1.840373959677 Eh       
E(XC)              :      -54.287824992091 Eh       
DFET-embed. en.    :        0.000000000000 Eh       

---------------
SCF CONVERGENCE
---------------

  Last Energy change         ...    6.6029e-10  Tolerance :   1.0000e-08
  Last MAX-Density change    ...    1.3918e-06  Tolerance :   1.0000e-07
  Last RMS-Density change    ...    1.9874e-08  Tolerance :   5.0000e-09
  Last DIIS Error            ...    8.6705e-07  Tolerance :   5.0000e-07

             **** THE GBW FILE WAS UPDATED (C-Cl-Cl-F_radical_opt.gbw) ****
             **** DENSITY C-Cl-Cl-F_radical_opt.scfp WAS UPDATED ****
             **** ENERGY FILE WAS UPDATED (C-Cl-Cl-F_radical_opt.en.tmp) ****
----------------------
UHF SPIN CONTAMINATION
----------------------

Warning: in a DFT calculation there is little theoretical justification to 
         calculate <S**2> as in Hartree-Fock theory. We will do it anyways
         but you should keep in mind that the values have only limited relevance

Expectation value of <S**2>     :     0.754489
Ideal value S*(S+1) for S=0.5   :     0.750000
Deviation                       :     0.004489

             **** THE GBW FILE WAS UPDATED (C-Cl-Cl-F_radical_opt.gbw) ****
             **** DENSITY C-Cl-Cl-F_radical_opt.scfp WAS UPDATED ****
----------------
ORBITAL ENERGIES
----------------
                 SPIN UP ORBITALS
  NO   OCC          E(Eh)            E(eV) 
   0   1.0000    -101.750064     -2768.7600 
   1   1.0000    -101.749762     -2768.7518 
   2   1.0000     -24.831548      -675.7008 
   3   1.0000     -10.460584      -284.6470 
   4   1.0000      -9.574879      -260.5457 
   5   1.0000      -9.574710      -260.5411 
   6   1.0000      -7.309724      -198.9077 
   7   1.0000      -7.309499      -198.9016 
   8   1.0000      -7.301026      -198.6710 
   9   1.0000      -7.300886      -198.6672 
  10   1.0000      -7.299818      -198.6381 
  11   1.0000      -7.299634      -198.6331 
  12   1.0000      -1.299143       -35.3515 
  13   1.0000      -0.946058       -25.7436 
  14   1.0000      -0.884456       -24.0673 
  15   1.0000      -0.691011       -18.8034 
  16   1.0000      -0.560802       -15.2602 
  17   1.0000      -0.548590       -14.9279 
  18   1.0000      -0.539381       -14.6773 
  19   1.0000      -0.442587       -12.0434 
  20   1.0000      -0.420612       -11.4454 
  21   1.0000      -0.383959       -10.4481 
  22   1.0000      -0.366988        -9.9863 
  23   1.0000      -0.350619        -9.5408 
  24   1.0000      -0.294593        -8.0163 
  25   0.0000      -0.034089        -0.9276 
  26   0.0000       0.004304         0.1171 
  27   0.0000       0.014247         0.3877 
  28   0.0000       0.037945         1.0325 
  29   0.0000       0.042972         1.1693 
  30   0.0000       0.047663         1.2970 
  31   0.0000       0.062306         1.6954 
  32   0.0000       0.086485         2.3534 
  33   0.0000       0.089915         2.4467 
  34   0.0000       0.090279         2.4566 
  35   0.0000       0.098675         2.6851 
  36   0.0000       0.106993         2.9114 
  37   0.0000       0.118052         3.2124 
  38   0.0000       0.159078         4.3287 
  39   0.0000       0.183521         4.9939 
  40   0.0000       0.184610         5.0235 
  41   0.0000       0.199895         5.4394 
  42   0.0000       0.209927         5.7124 
  43   0.0000       0.214570         5.8387 
  44   0.0000       0.223415         6.0794 
  45   0.0000       0.229881         6.2554 
  46   0.0000       0.257820         7.0156 
  47   0.0000       0.267771         7.2864 
  48   0.0000       0.286090         7.7849 
  49   0.0000       0.301279         8.1982 
  50   0.0000       0.308794         8.4027 
  51   0.0000       0.333137         9.0651 
  52   0.0000       0.345246         9.3946 
  53   0.0000       0.352295         9.5864 
  54   0.0000       0.357846         9.7375 
  55   0.0000       0.394738        10.7414 
  56   0.0000       0.400270        10.8919 
  57   0.0000       0.421521        11.4702 
  58   0.0000       0.426885        11.6161 
  59   0.0000       0.479261        13.0414 
  60   0.0000       0.566644        15.4192 
  61   0.0000       0.574393        15.6300 
  62   0.0000       0.580653        15.8004 
  63   0.0000       0.584351        15.9010 
  64   0.0000       0.617701        16.8085 
  65   0.0000       0.626263        17.0415 
  66   0.0000       0.630748        17.1635 
  67   0.0000       0.651865        17.7382 
  68   0.0000       0.671584        18.2747 
  69   0.0000       0.674333        18.3495 
  70   0.0000       0.677795        18.4437 
  71   0.0000       0.683925        18.6105 
  72   0.0000       0.690572        18.7914 
  73   0.0000       0.707792        19.2600 
  74   0.0000       0.725129        19.7318 
  75   0.0000       0.734691        19.9920 
  76   0.0000       0.743341        20.2273 
  77   0.0000       0.766703        20.8631 
  78   0.0000       0.784692        21.3526 
  79   0.0000       0.859005        23.3747 
  80   0.0000       0.883591        24.0437 
  81   0.0000       0.909040        24.7362 
  82   0.0000       0.923926        25.1413 
  83   0.0000       0.993611        27.0375 
  84   0.0000       1.034178        28.1414 
  85   0.0000       1.060790        28.8656 
  86   0.0000       1.063930        28.9510 
  87   0.0000       1.119903        30.4741 
  88   0.0000       1.127999        30.6944 
  89   0.0000       1.200385        32.6641 
  90   0.0000       1.303396        35.4672 
  91   0.0000       1.323825        36.0231 
  92   0.0000       1.395968        37.9862 
  93   0.0000       1.442498        39.2524 
  94   0.0000       1.753487        47.7148 
  95   0.0000       1.938405        52.7467 
  96   0.0000       1.962078        53.3908 
  97   0.0000       2.004257        54.5386 
  98   0.0000       2.006541        54.6007 
  99   0.0000       2.016492        54.8715 
 100   0.0000       2.026822        55.1526 
 101   0.0000       2.036817        55.4246 
 102   0.0000       2.050032        55.7842 
 103   0.0000       2.056515        55.9606 
 104   0.0000       2.058366        56.0110 
 105   0.0000       2.067870        56.2696 
 106   0.0000       2.070590        56.3436 
 107   0.0000       2.075418        56.4750 
 108   0.0000       2.077461        56.5306 
 109   0.0000       2.088570        56.8329 
 110   0.0000       2.089244        56.8512 
 111   0.0000       2.097020        57.0628 
 112   0.0000       2.122142        57.7464 
 113   0.0000       2.131956        58.0135 
 114   0.0000       2.156386        58.6783 
 115   0.0000       2.220281        60.4169 
 116   0.0000       2.274591        61.8948 
 117   0.0000       2.282784        62.1177 
 118   0.0000       2.310908        62.8830 
 119   0.0000       2.330707        63.4218 
 120   0.0000       2.332503        63.4706 
 121   0.0000       2.349613        63.9362 
 122   0.0000       2.369454        64.4761 
 123   0.0000       2.387829        64.9761 
 124   0.0000       2.407319        65.5065 
 125   0.0000       2.468297        67.1658 
 126   0.0000       2.558844        69.6297 
 127   0.0000       2.598351        70.7047 
 128   0.0000       2.632102        71.6231 
 129   0.0000       2.675034        72.7914 
 130   0.0000       2.718869        73.9842 
 131   0.0000       2.870969        78.1230 
 132   0.0000       2.977030        81.0091 
 133   0.0000       3.106755        84.5391 
 134   0.0000       3.135210        85.3134 
 135   0.0000       3.206186        87.2448 
 136   0.0000       3.232453        87.9595 
 137   0.0000       3.241474        88.2050 
 138   0.0000       3.361303        91.4657 
 139   0.0000       3.388772        92.2132 
 140   0.0000       3.420043        93.0641 
 141   0.0000       3.480683        94.7142 
 142   0.0000       3.535001        96.1923 
 143   0.0000       3.608309        98.1871 
 144   0.0000       3.619251        98.4848 
 145   0.0000       3.648960        99.2933 
 146   0.0000       4.211135       114.5908 
 147   0.0000       4.427731       120.4847 
 148   0.0000       4.567613       124.2911 
 149   0.0000       4.683746       127.4512 
 150   0.0000       5.541468       150.7910 
 151   0.0000       6.485448       176.4780 
 152   0.0000       6.721208       182.8934 
 153   0.0000       6.731955       183.1858 
 154   0.0000       6.735783       183.2900 
 155   0.0000       6.737032       183.3240 
 156   0.0000       6.774552       184.3449 
 157   0.0000       6.786575       184.6721 
 158   0.0000       6.817278       185.5076 
 159   0.0000       6.817839       185.5228 
 160   0.0000       6.840279       186.1335 
 161   0.0000       6.842121       186.1836 
 162   0.0000       6.882179       187.2736 
 163   0.0000       6.936053       188.7396 
 164   0.0000       6.944459       188.9683 
 165   0.0000       6.954996       189.2551 
 166   0.0000       7.323326       199.2778 
 167   0.0000       7.345410       199.8788 
 168   0.0000       7.576994       206.1805 
 169   0.0000       8.748642       238.0626 
 170   0.0000       8.753556       238.1964 
 171   0.0000       8.771715       238.6905 
 172   0.0000       8.895610       242.0619 
 173   0.0000       8.930700       243.0167 
 174   0.0000       8.989523       244.6174 
 175   0.0000       9.337095       254.0753 
 176   0.0000       9.726074       264.6599 
 177   0.0000       9.857645       268.2402 
 178   0.0000       9.865005       268.4404 
 179   0.0000       9.901570       269.4354 
 180   0.0000       9.965183       271.1664 
 181   0.0000      10.252922       278.9962 
 182   0.0000      10.299002       280.2501 
 183   0.0000      11.867332       322.9265 
 184   0.0000      12.820522       348.8641 
 185   0.0000      12.836560       349.3006 
 186   0.0000      20.147534       548.2423 
 187   0.0000      20.224701       550.3421 
 188   0.0000      20.840642       567.1027 
 189   0.0000      23.863838       649.3680 
 190   0.0000      23.870693       649.5546 
 191   0.0000      23.871158       649.5672 
 192   0.0000      23.872929       649.6154 
 193   0.0000      23.905259       650.4952 
 194   0.0000      23.909972       650.6234 
 195   0.0000      23.927114       651.0899 
 196   0.0000      23.927906       651.1114 
 197   0.0000      23.983208       652.6163 
 198   0.0000      23.996039       652.9654 
 199   0.0000      27.478790       747.7359 
 200   0.0000      46.219917      1257.7079 
 201   0.0000      47.398332      1289.7742 
 202   0.0000      47.412322      1290.1549 
 203   0.0000      47.447585      1291.1144 
 204   0.0000      47.493904      1292.3748 
 205   0.0000      47.584401      1294.8374 
 206   0.0000      47.618850      1295.7748 
 207   0.0000      47.907358      1303.6255 
 208   0.0000      47.916877      1303.8845 
 209   0.0000      85.779826      2334.1877 
 210   0.0000      85.784016      2334.3017 
 211   0.0000      85.784312      2334.3098 
 212   0.0000      85.785236      2334.3349 
 213   0.0000      85.807967      2334.9535 
 214   0.0000      85.810266      2335.0161 
 215   0.0000      85.820785      2335.3023 
 216   0.0000      85.822261      2335.3425 
 217   0.0000      85.853243      2336.1855 
 218   0.0000      85.860860      2336.3928 
 219   0.0000     109.349915      2975.5625 
 220   0.0000     169.069063      4600.6031 
 221   0.0000     169.155180      4602.9465 
 222   0.0000     170.551861      4640.9521 
 223   0.0000     404.631656     11010.5871 
 224   0.0000     799.927423     21767.1318 
 225   0.0000     875.015494     23810.3821 
 226   0.0000     875.116923     23813.1421 
 227   0.0000    1899.579795     51690.1941 

                 SPIN DOWN ORBITALS
  NO   OCC          E(Eh)            E(eV) 
   0   1.0000    -101.749041     -2768.7322 
   1   1.0000    -101.748756     -2768.7244 
   2   1.0000     -24.828375      -675.6144 
   3   1.0000     -10.444259      -284.2027 
   4   1.0000      -9.573903      -260.5192 
   5   1.0000      -9.573751      -260.5150 
   6   1.0000      -7.307857      -198.8569 
   7   1.0000      -7.307702      -198.8527 
   8   1.0000      -7.299252      -198.6227 
   9   1.0000      -7.299078      -198.6180 
  10   1.0000      -7.299012      -198.6162 
  11   1.0000      -7.298870      -198.6123 
  12   1.0000      -1.291250       -35.1367 
  13   1.0000      -0.935880       -25.4666 
  14   1.0000      -0.877910       -23.8891 
  15   1.0000      -0.671441       -18.2709 
  16   1.0000      -0.548150       -14.9159 
  17   1.0000      -0.541672       -14.7396 
  18   1.0000      -0.506681       -13.7875 
  19   1.0000      -0.434351       -11.8193 
  20   1.0000      -0.399764       -10.8781 
  21   1.0000      -0.381261       -10.3747 
  22   1.0000      -0.359789        -9.7903 
  23   1.0000      -0.347949        -9.4682 
  24   0.0000      -0.131082        -3.5669 
  25   0.0000      -0.022610        -0.6153 
  26   0.0000       0.018253         0.4967 
  27   0.0000       0.019005         0.5172 
  28   0.0000       0.043233         1.1764 
  29   0.0000       0.047189         1.2841 
  30   0.0000       0.053936         1.4677 
  31   0.0000       0.068627         1.8674 
  32   0.0000       0.089230         2.4281 
  33   0.0000       0.095236         2.5915 
  34   0.0000       0.095581         2.6009 
  35   0.0000       0.102535         2.7901 
  36   0.0000       0.113829         3.0974 
  37   0.0000       0.119801         3.2599 
  38   0.0000       0.161346         4.3905 
  39   0.0000       0.185207         5.0397 
  40   0.0000       0.188586         5.1317 
  41   0.0000       0.201622         5.4864 
  42   0.0000       0.213363         5.8059 
  43   0.0000       0.217312         5.9134 
  44   0.0000       0.226934         6.1752 
  45   0.0000       0.232634         6.3303 
  46   0.0000       0.268980         7.3193 
  47   0.0000       0.272568         7.4170 
  48   0.0000       0.291954         7.9445 
  49   0.0000       0.303479         8.2581 
  50   0.0000       0.311136         8.4664 
  51   0.0000       0.352380         9.5887 
  52   0.0000       0.358603         9.7581 
  53   0.0000       0.360129         9.7996 
  54   0.0000       0.368240        10.0203 
  55   0.0000       0.401218        10.9177 
  56   0.0000       0.404075        10.9954 
  57   0.0000       0.427316        11.6279 
  58   0.0000       0.430539        11.7156 
  59   0.0000       0.488928        13.3044 
  60   0.0000       0.570312        15.5190 
  61   0.0000       0.578169        15.7328 
  62   0.0000       0.583626        15.8813 
  63   0.0000       0.590770        16.0757 
  64   0.0000       0.623146        16.9567 
  65   0.0000       0.631697        17.1894 
  66   0.0000       0.638633        17.3781 
  67   0.0000       0.656169        17.8553 
  68   0.0000       0.674838        18.3633 
  69   0.0000       0.678573        18.4649 
  70   0.0000       0.681092        18.5335 
  71   0.0000       0.689090        18.7511 
  72   0.0000       0.693394        18.8682 
  73   0.0000       0.712008        19.3747 
  74   0.0000       0.729844        19.8601 
  75   0.0000       0.743920        20.2431 
  76   0.0000       0.748674        20.3724 
  77   0.0000       0.770233        20.9591 
  78   0.0000       0.791598        21.5405 
  79   0.0000       0.870629        23.6910 
  80   0.0000       0.888174        24.1684 
  81   0.0000       0.916778        24.9468 
  82   0.0000       0.930198        25.3120 
  83   0.0000       1.009672        27.4746 
  84   0.0000       1.037259        28.2252 
  85   0.0000       1.072907        29.1953 
  86   0.0000       1.088500        29.6196 
  87   0.0000       1.126187        30.6451 
  88   0.0000       1.137939        30.9649 
  89   0.0000       1.212066        32.9820 
  90   0.0000       1.313423        35.7401 
  91   0.0000       1.333672        36.2911 
  92   0.0000       1.406733        38.2791 
  93   0.0000       1.450990        39.4834 
  94   0.0000       1.764257        48.0079 
  95   0.0000       1.960679        53.3528 
  96   0.0000       1.968446        53.5641 
  97   0.0000       2.012840        54.7722 
  98   0.0000       2.014501        54.8174 
  99   0.0000       2.032521        55.3077 
 100   0.0000       2.033872        55.3445 
 101   0.0000       2.042470        55.5784 
 102   0.0000       2.053668        55.8831 
 103   0.0000       2.060901        56.0800 
 104   0.0000       2.062606        56.1264 
 105   0.0000       2.073777        56.4303 
 106   0.0000       2.078052        56.5467 
 107   0.0000       2.082273        56.6615 
 108   0.0000       2.083358        56.6911 
 109   0.0000       2.092455        56.9386 
 110   0.0000       2.099173        57.1214 
 111   0.0000       2.105275        57.2874 
 112   0.0000       2.128858        57.9292 
 113   0.0000       2.137753        58.1712 
 114   0.0000       2.158906        58.7468 
 115   0.0000       2.230538        60.6960 
 116   0.0000       2.284836        62.1735 
 117   0.0000       2.290843        62.3370 
 118   0.0000       2.319699        63.1222 
 119   0.0000       2.339101        63.6502 
 120   0.0000       2.340664        63.6927 
 121   0.0000       2.354461        64.0681 
 122   0.0000       2.375707        64.6463 
 123   0.0000       2.393349        65.1263 
 124   0.0000       2.429650        66.1141 
 125   0.0000       2.478624        67.4468 
 126   0.0000       2.572526        70.0020 
 127   0.0000       2.614129        71.1341 
 128   0.0000       2.638128        71.7871 
 129   0.0000       2.689896        73.1958 
 130   0.0000       2.732642        74.3590 
 131   0.0000       2.889869        78.6373 
 132   0.0000       2.990564        81.3774 
 133   0.0000       3.115094        84.7660 
 134   0.0000       3.173034        86.3427 
 135   0.0000       3.221298        87.6560 
 136   0.0000       3.255146        88.5770 
 137   0.0000       3.267208        88.9052 
 138   0.0000       3.368851        91.6711 
 139   0.0000       3.421360        93.0999 
 140   0.0000       3.466485        94.3279 
 141   0.0000       3.497425        95.1698 
 142   0.0000       3.568143        97.0941 
 143   0.0000       3.630178        98.7822 
 144   0.0000       3.653459        99.4157 
 145   0.0000       3.672590        99.9363 
 146   0.0000       4.222331       114.8955 
 147   0.0000       4.441652       120.8635 
 148   0.0000       4.579291       124.6088 
 149   0.0000       4.686796       127.5342 
 150   0.0000       5.549023       150.9966 
 151   0.0000       6.492102       176.6591 
 152   0.0000       6.723004       182.9422 
 153   0.0000       6.733448       183.2264 
 154   0.0000       6.737706       183.3423 
 155   0.0000       6.738814       183.3724 
 156   0.0000       6.777319       184.4202 
 157   0.0000       6.789556       184.7532 
 158   0.0000       6.818304       185.5355 
 159   0.0000       6.819909       185.5792 
 160   0.0000       6.845519       186.2761 
 161   0.0000       6.846201       186.2946 
 162   0.0000       6.884429       187.3348 
 163   0.0000       6.940877       188.8709 
 164   0.0000       6.947317       189.0461 
 165   0.0000       6.959413       189.3753 
 166   0.0000       7.330835       199.4822 
 167   0.0000       7.347599       199.9383 
 168   0.0000       7.584416       206.3825 
 169   0.0000       8.758216       238.3232 
 170   0.0000       8.762748       238.4465 
 171   0.0000       8.817767       239.9437 
 172   0.0000       8.906594       242.3607 
 173   0.0000       8.932253       243.0590 
 174   0.0000       9.003964       245.0103 
 175   0.0000       9.350309       254.4348 
 176   0.0000       9.736123       264.9334 
 177   0.0000       9.860942       268.3299 
 178   0.0000       9.867103       268.4975 
 179   0.0000       9.903552       269.4893 
 180   0.0000       9.966685       271.2073 
 181   0.0000      10.255392       279.0634 
 182   0.0000      10.301756       280.3250 
 183   0.0000      11.886735       323.4545 
 184   0.0000      12.824084       348.9611 
 185   0.0000      12.838873       349.3635 
 186   0.0000      20.156467       548.4853 
 187   0.0000      20.226662       550.3955 
 188   0.0000      20.844046       567.1953 
 189   0.0000      23.865127       649.4031 
 190   0.0000      23.871854       649.5862 
 191   0.0000      23.872090       649.5926 
 192   0.0000      23.874374       649.6547 
 193   0.0000      23.906912       650.5401 
 194   0.0000      23.911935       650.6768 
 195   0.0000      23.927832       651.1094 
 196   0.0000      23.928452       651.1263 
 197   0.0000      23.984485       652.6510 
 198   0.0000      23.997374       653.0018 
 199   0.0000      27.483878       747.8744 
 200   0.0000      46.236687      1258.1642 
 201   0.0000      47.399900      1289.8169 
 202   0.0000      47.413475      1290.1862 
 203   0.0000      47.448742      1291.1459 
 204   0.0000      47.494767      1292.3983 
 205   0.0000      47.585480      1294.8667 
 206   0.0000      47.619905      1295.8035 
 207   0.0000      47.908915      1303.6679 
 208   0.0000      47.918254      1303.9220 
 209   0.0000      85.781541      2334.2344 
 210   0.0000      85.785527      2334.3429 
 211   0.0000      85.785642      2334.3460 
 212   0.0000      85.787228      2334.3892 
 213   0.0000      85.810198      2335.0142 
 214   0.0000      85.812863      2335.0867 
 215   0.0000      85.821624      2335.3251 
 216   0.0000      85.823319      2335.3712 
 217   0.0000      85.854926      2336.2313 
 218   0.0000      85.862577      2336.4395 
 219   0.0000     109.353402      2975.6573 
 220   0.0000     169.070293      4600.6366 
 221   0.0000     169.156263      4602.9759 
 222   0.0000     170.562217      4641.2339 
 223   0.0000     404.632857     11010.6198 
 224   0.0000     799.935215     21767.3438 
 225   0.0000     875.016030     23810.3967 
 226   0.0000     875.117459     23813.1567 
 227   0.0000    1899.580221     51690.2057 
-------
TIMINGS
-------

Total SCF time: 0 days 0 hours 1 min 53 sec 

Total time                  ....     113.258 sec
Sum of individual times     ....     112.675 sec  ( 99.5%)

Fock matrix formation       ....     111.211 sec  ( 98.2%)
  XC integration            ....       9.935 sec  (  8.9% of F)
    Basis function eval.    ....       1.702 sec  ( 17.1% of XC)
    Density eval.           ....       2.530 sec  ( 25.5% of XC)
    XC-Functional eval.     ....       0.628 sec  (  6.3% of XC)
    XC-Potential eval.      ....       4.643 sec  ( 46.7% of XC)
Diagonalization             ....       0.394 sec  (  0.3%)
Density matrix formation    ....       0.022 sec  (  0.0%)
Population analysis         ....       0.001 sec  (  0.0%)
Initial guess               ....       0.204 sec  (  0.2%)
Orbital Transformation      ....       0.000 sec  (  0.0%)
Orbital Orthonormalization  ....       0.000 sec  (  0.0%)
DIIS solution               ....       0.413 sec  (  0.4%)
Grid generation             ....       0.429 sec  (  0.4%)

Maximum memory used throughout the entire SCF-calculation: 275.1 MB

-------------------------   --------------------
FINAL SINGLE POINT ENERGY     -1057.936610699467
-------------------------   --------------------

------------------------------------------------------------------------------
                         ORCA SCF GRADIENT CALCULATION
------------------------------------------------------------------------------

Gradient of the Kohn-Sham DFT energy:
Kohn-Sham wavefunction type      ... UKS
Hartree-Fock exchange scaling    ...    0.250
Number of operators              ...    2
Number of atoms                  ...    4
Basis set dimensions             ...  228
Integral neglect threshold       ... 2.5e-11
Integral primitive cutoff        ... 2.5e-12
SHARK Integral package           ... ON

Nuc. rep. gradient       (SHARK) ... done (  0.0 sec)
HCore & Overlap gradient (SHARK) ... done (  0.1 sec)
Two-Electron gradient    (SHARK) ... done ( 29.2 sec)
Exchange-correlation gradient    ... done

------------------
CARTESIAN GRADIENT
------------------

   1   C   :    0.001122095   -0.013046107    0.056754107
   2   Cl  :    0.016501761   -0.010954451   -0.015069652
   3   Cl  :   -0.014271440   -0.008928922   -0.015164135
   4   F   :   -0.003352416    0.032929480   -0.026520320

Difference to translation invariance:
           :    0.0000000000   -0.0000000000   -0.0000000000

Difference to rotation invariance:
           :    0.0000912928    0.0000410030    0.0001137919

Norm of the cartesian gradient     ...    0.0795245784
RMS gradient                       ...    0.0229567684
MAX gradient                       ...    0.0567541070

-------
TIMINGS
-------

Total SCF gradient time            ...       31.142 sec

One electron gradient       ....       0.083 sec  (  0.3%)
Two electron gradient       ....      29.232 sec  ( 93.9%)
XC gradient                 ....       1.694 sec  (  5.4%)

Maximum memory used throughout the entire SCFGRAD-calculation: 73.9 MB
------------------------------------------------------------------------------
                         ORCA GEOMETRY RELAXATION STEP
------------------------------------------------------------------------------

Reading the OPT-File                    .... done
Getting information on internals        .... done
Copying old internal coords+grads       .... done
Making the new internal coordinates     .... (new redundants).... done
Validating the new internal coordinates .... (new redundants).... done
Calculating the B-matrix                .... done
Calculating the G,G- and P matrices     .... done
Transforming gradient to internals      .... done
Projecting the internal gradient        .... done
Number of atoms                         ....   4
Number of internal coordinates          ....   7
Current Energy                          .... -1057.936610699 Eh
Current gradient norm                   ....     0.079524578 Eh/bohr
Maximum allowed component of the step   ....  0.300
Current trust radius                    ....  0.300
Evaluating the initial hessian          ....  (Almloef) done
Projecting the Hessian                  .... done
Forming the augmented Hessian           .... done
Diagonalizing the augmented Hessian     .... done
Last element of RFO vector              ....  0.973138730
Lowest eigenvalues of augmented Hessian:
 -0.012077290  0.130433560  0.340984104  0.349199797  0.388728477
Length of the computed step             ....  0.236574172
The final length of the internal step   ....  0.236574172
Converting the step to cartesian space:
 Initial RMS(Int)=    0.0894166321
Transforming coordinates:
 Iter   0:  RMS(Cart)=    0.0565445643 RMS(Int)=    0.0883307372
 Iter   1:  RMS(Cart)=    0.0042438152 RMS(Int)=    0.0054408256
 Iter   2:  RMS(Cart)=    0.0002383440 RMS(Int)=    0.0002915851
 Iter   3:  RMS(Cart)=    0.0000298791 RMS(Int)=    0.0000381904
 Iter   4:  RMS(Cart)=    0.0000014378 RMS(Int)=    0.0000020139
 Iter   5:  RMS(Cart)=    0.0000001924 RMS(Int)=    0.0000002367
 Iter   6:  RMS(Cart)=    0.0000000096 RMS(Int)=    0.0000000143
done
Storing new coordinates                 .... done

                                .--------------------.
          ----------------------|Geometry convergence|-------------------------
          Item                value                   Tolerance       Converged
          ---------------------------------------------------------------------
          RMS gradient        0.0229593407            0.0001000000      NO
          MAX gradient        0.0409202977            0.0003000000      NO
          RMS step            0.0894166321            0.0020000000      NO
          MAX step            0.1686512335            0.0040000000      NO
          ........................................................
          Max(Bonds)      0.0394      Max(Angles)    4.38
          Max(Dihed)        0.00      Max(Improp)    9.66
          ---------------------------------------------------------------------

The optimization has not yet converged - more geometry cycles are needed


    ---------------------------------------------------------------------------
                         Redundant Internal Coordinates
                            (Angstroem and degrees)

        Definition                    Value    dE/dq     Step     New-Value
    ----------------------------------------------------------------------------
     1. B(Cl  1,C   0)                1.7759  0.023257 -0.0350    1.7409   
     2. B(Cl  2,C   0)                1.7694  0.020522 -0.0302    1.7393   
     3. B(F   3,C   0)                1.3808  0.040920 -0.0394    1.3414   
     4. A(Cl  1,C   0,F   3)          109.15 -0.004301    3.33    112.49   
     5. A(Cl  2,C   0,F   3)          107.98 -0.020838    4.38    112.35   
     6. A(Cl  1,C   0,Cl  2)          112.15 -0.008097    4.11    116.26   
     7. I(Cl  1,F   3,Cl  2,C   0)    -53.10 -0.023134    9.66    -43.44   
    ----------------------------------------------------------------------------

         *************************************************************
         *                GEOMETRY OPTIMIZATION CYCLE   2            *
         *************************************************************
---------------------------------
CARTESIAN COORDINATES (ANGSTROEM)
---------------------------------
  C     -0.002959    0.098471    0.309213
  Cl     1.494734   -0.692499   -0.093333
  Cl    -1.453957   -0.772916   -0.091240
  F     -0.037818    1.366944   -0.125640

----------------------------
CARTESIAN COORDINATES (A.U.)
----------------------------
  NO LB      ZA    FRAG     MASS         X           Y           Z
   0 C     6.0000    0    12.011   -0.005592    0.186084    0.584328
   1 Cl   17.0000    0    35.453    2.824638   -1.308634   -0.176373
   2 Cl   17.0000    0    35.453   -2.747581   -1.460600   -0.172419
   3 F     9.0000    0    18.998   -0.071466    2.583150   -0.237425

--------------------------------
INTERNAL COORDINATES (ANGSTROEM)
--------------------------------
 C      0   0   0     0.000000000000     0.00000000     0.00000000
 Cl     1   0   0     1.740908505798     0.00000000     0.00000000
 Cl     1   2   0     1.739274153274   115.90226448     0.00000000
 F      1   2   3     1.341392844461   112.15058902   229.40324363

---------------------------
INTERNAL COORDINATES (A.U.)
---------------------------
 C      0   0   0     0.000000000000     0.00000000     0.00000000
 Cl     1   0   0     3.289840300171     0.00000000     0.00000000
 Cl     1   2   0     3.286751821495   115.90226448     0.00000000
 F      1   2   3     2.534865114033   112.15058902   229.40324363

------------------------------------------------------------------------------
                   ___                                                        
                  /   \      - P O W E R E D   B Y -                         
                 /     \                                                     
                 |  |  |   _    _      __       _____    __    __             
                 |  |  |  | |  | |    /  \     |  _  \  |  |  /  |          
                  \  \/   | |  | |   /    \    | | | |  |  | /  /          
                 / \  \   | |__| |  /  /\  \   | |_| |  |  |/  /          
                |  |  |   |  __  | /  /__\  \  |    /   |      \           
                |  |  |   | |  | | |   __   |  |    \   |  |\   \          
                \     /   | |  | | |  |  |  |  | |\  \  |  | \   \       
                 \___/    |_|  |_| |__|  |__|  |_| \__\ |__|  \__/        
                                                                              
                      - O R C A' S   B I G   F R I E N D -                    
                                      &                                       
                       - I N T E G R A L  F E E D E R -                       
                                                                              
 v1 FN, 2020, v2 2021                                                         
------------------------------------------------------------------------------


Reading SHARK input file C-Cl-Cl-F_radical_opt.SHARKINP.tmp ... ok
----------------------
SHARK INTEGRAL PACKAGE
----------------------

Number of atoms                             ...      4
Number of basis functions                   ...    266
Number of shells                            ...    110
Maximum angular momentum                    ...      3
Integral batch strategy                     ... SHARK/LIBINT Hybrid
RI-J (if used) integral strategy            ... SPLIT-RIJ (Revised 2003 algorithm where possible)
Printlevel                                  ...      1
Contraction scheme used                     ... PARTIAL GENERAL contraction
Coulomb Range Separation                    ... NOT USED
Exchange Range Separation                   ... NOT USED
Finite Nucleus Model                        ... NOT USED
Auxiliary Coulomb fitting basis             ... NOT available
Auxiliary J/K fitting basis                 ... NOT available
Auxiliary Correlation fitting basis         ... NOT available
Auxiliary 'external' fitting basis          ... NOT available
Integral threshold                          ...     2.500000e-11
Primitive cut-off                           ...     2.500000e-12
Primitive pair pre-selection threshold      ...     2.500000e-12

Calculating pre-screening integrals         ... done (  0.0 sec) Dimension = 110
Calculating pre-screening integrals (ORCA)  ... done (  0.1 sec) Dimension = 84
Organizing shell pair data                  ... done (  0.0 sec)
Shell pair information
Total number of shell pairs                 ...      6105
Shell pairs after pre-screening             ...      4541
Total number of primitive shell pairs       ...      7794
Primitive shell pairs kept                  ...      5417
          la=0 lb=0:   1056 shell pairs
          la=1 lb=0:   1286 shell pairs
          la=1 lb=1:    389 shell pairs
          la=2 lb=0:    806 shell pairs
          la=2 lb=1:    470 shell pairs
          la=2 lb=2:    154 shell pairs
          la=3 lb=0:    192 shell pairs
          la=3 lb=1:    110 shell pairs
          la=3 lb=2:     68 shell pairs
          la=3 lb=3:     10 shell pairs

Calculating one electron integrals          ... done (  0.0 sec)
Calculating Nuclear repulsion               ... done (  0.0 sec) ENN=    198.272459396561 Eh

SHARK setup successfully completed in   0.3 seconds

Maximum memory used throughout the entire GTOINT-calculation: 47.1 MB

Diagonalization of the overlap matrix:
Smallest eigenvalue                        ... 7.690e-05
Time for diagonalization                   ...    0.013 sec
Threshold for overlap eigenvalues          ... 1.000e-08
Number of eigenvalues below threshold      ... 0
Time for construction of square roots      ...    0.005 sec
Total time needed                          ...    0.019 sec

-------------------
DFT GRID GENERATION
-------------------

General Integration Accuracy     IntAcc      ... 4.388
Radial Grid Type                 RadialGrid  ... OptM3 with GC (2021)
Angular Grid (max. ang.)         AngularGrid ... 4 (Lebedev-302)
Angular grid pruning method      GridPruning ... 4 (adaptive)
Weight generation scheme         WeightScheme... Becke
Basis function cutoff            BFCut       ... 1.0000e-11
Integration weight cutoff        WCut        ... 1.0000e-14
Angular grids for H and He will be reduced by one unit
Partially contracted basis set               ... off
Rotationally invariant grid construction     ... off

Total number of grid points                  ...    28214
Total number of batches                      ...      443
Average number of points per batch           ...       63
Average number of grid points per atom       ...     7054
Time for grid setup =    0.321 sec

--------------
SCF ITERATIONS
--------------
ITER       Energy         Delta-E        Max-DP      RMS-DP      [F,P]     Damp
               ***  Starting incremental Fock matrix formation  ***
  0  -1057.9373014830   0.000000000000 0.00265087  0.00006558  0.0168510 0.7000
  1  -1057.9392131645  -0.001911681513 0.00285988  0.00006317  0.0132330 0.7000
                               ***Turning on DIIS***
  2  -1057.9407471967  -0.001534032188 0.00859053  0.00017150  0.0099511 0.0000
  3  -1057.9447777611  -0.004030564403 0.00232694  0.00003141  0.0019992 0.0000
  4  -1057.9448856887  -0.000107927661 0.00196046  0.00002345  0.0006886 0.0000
  5  -1057.9449106135  -0.000024924771 0.00062380  0.00000706  0.0004484 0.0000
  6  -1057.9449161378  -0.000005524356 0.00022597  0.00000310  0.0001820 0.0000
  7  -1057.9449169886  -0.000000850714 0.00006025  0.00000090  0.0000862 0.0000
  8  -1057.9449170723  -0.000000083702 0.00002011  0.00000044  0.0000507 0.0000
  9  -1057.9449170880  -0.000000015722 0.00001300  0.00000025  0.0000302 0.0000
 10  -1057.9449170944  -0.000000006438 0.00000757  0.00000009  0.0000065 0.0000
 11  -1057.9449170954  -0.000000000991 0.00000241  0.00000005  0.0000014 0.0000
 12  -1057.9449170954   0.000000000028 0.00000196  0.00000002  0.0000011 0.0000
                            ***DIIS convergence achieved***

               *****************************************************
               *                     SUCCESS                       *
               *           SCF CONVERGED AFTER  13 CYCLES          *
               *****************************************************

Total Energy       :        -1057.94491710 Eh          -28788.14476 eV
  Last Energy change         ...   -2.9240e-10  Tolerance :   1.0000e-08
  Last MAX-Density change    ...    1.6166e-06  Tolerance :   1.0000e-07
             **** THE GBW FILE WAS UPDATED (C-Cl-Cl-F_radical_opt.gbw) ****
             **** DENSITY C-Cl-Cl-F_radical_opt.scfp WAS UPDATED ****
             **** ENERGY FILE WAS UPDATED (C-Cl-Cl-F_radical_opt.en.tmp) ****
----------------------
UHF SPIN CONTAMINATION
----------------------

Warning: in a DFT calculation there is little theoretical justification to 
         calculate <S**2> as in Hartree-Fock theory. We will do it anyways
         but you should keep in mind that the values have only limited relevance

Expectation value of <S**2>     :     0.754244
Ideal value S*(S+1) for S=0.5   :     0.750000
Deviation                       :     0.004244

             **** THE GBW FILE WAS UPDATED (C-Cl-Cl-F_radical_opt.gbw) ****
             **** DENSITY C-Cl-Cl-F_radical_opt.scfp WAS UPDATED ****
Total SCF time: 0 days 0 hours 1 min 34 sec 

Maximum memory used throughout the entire SCF-calculation: 275.1 MB

-------------------------   --------------------
FINAL SINGLE POINT ENERGY     -1057.944917095671
-------------------------   --------------------

------------------------------------------------------------------------------
                         ORCA SCF GRADIENT CALCULATION
------------------------------------------------------------------------------

Gradient of the Kohn-Sham DFT energy:
Kohn-Sham wavefunction type      ... UKS
Hartree-Fock exchange scaling    ...    0.250
Number of operators              ...    2
Number of atoms                  ...    4
Basis set dimensions             ...  228
Integral neglect threshold       ... 2.5e-11
Integral primitive cutoff        ... 2.5e-12
SHARK Integral package           ... ON

Nuc. rep. gradient       (SHARK) ... done (  0.0 sec)
HCore & Overlap gradient (SHARK) ... done (  0.1 sec)
Two-Electron gradient    (SHARK) ... done ( 30.1 sec)
Exchange-correlation gradient    ... done

------------------
CARTESIAN GRADIENT
------------------

   1   C   :   -0.000281559   -0.004068542    0.018885834
   2   Cl  :    0.010834421   -0.006200505   -0.005244895
   3   Cl  :   -0.010064440   -0.006528804   -0.005118238
   4   F   :   -0.000488421    0.016797852   -0.008522701

Difference to translation invariance:
           :   -0.0000000000   -0.0000000000    0.0000000000

Difference to rotation invariance:
           :   -0.0000154216    0.0000245275    0.0000387286

Norm of the cartesian gradient     ...    0.0328907939
RMS gradient                       ...    0.0094947544
MAX gradient                       ...    0.0188858339

-------
TIMINGS
-------

Total SCF gradient time            ...       31.960 sec

One electron gradient       ....       0.082 sec  (  0.3%)
Two electron gradient       ....      30.063 sec  ( 94.1%)
XC gradient                 ....       1.675 sec  (  5.2%)

Maximum memory used throughout the entire SCFGRAD-calculation: 73.9 MB
------------------------------------------------------------------------------
                         ORCA GEOMETRY RELAXATION STEP
------------------------------------------------------------------------------

Reading the OPT-File                    .... done
Getting information on internals        .... done
Copying old internal coords+grads       .... done
Making the new internal coordinates     .... (new redundants).... done
Validating the new internal coordinates .... (new redundants).... done
Calculating the B-matrix                .... done
Calculating the G,G- and P matrices     .... done
Transforming gradient to internals      .... done
Projecting the internal gradient        .... done
Number of atoms                         ....   4
Number of internal coordinates          ....   7
Current Energy                          .... -1057.944917096 Eh
Current gradient norm                   ....     0.032890794 Eh/bohr
Maximum allowed component of the step   ....  0.300
Current trust radius                    ....  0.300
Updating the Hessian (BFGS)             .... done
Forming the augmented Hessian           .... done
Diagonalizing the augmented Hessian     .... done
Last element of RFO vector              ....  0.990618916
Lowest eigenvalues of augmented Hessian:
 -0.003366601  0.116608362  0.269275875  0.344270780  0.388814812
Length of the computed step             ....  0.137947543
The final length of the internal step   ....  0.137947543
Converting the step to cartesian space:
 Initial RMS(Int)=    0.0521392703
Transforming coordinates:
 Iter   0:  RMS(Cart)=    0.0311650151 RMS(Int)=    0.0518917721
 Iter   1:  RMS(Cart)=    0.0009223128 RMS(Int)=    0.0011321895
 Iter   2:  RMS(Cart)=    0.0000278359 RMS(Int)=    0.0000362710
 Iter   3:  RMS(Cart)=    0.0000012662 RMS(Int)=    0.0000014034
 Iter   4:  RMS(Cart)=    0.0000000499 RMS(Int)=    0.0000000644
done
Storing new coordinates                 .... done

                                .--------------------.
          ----------------------|Geometry convergence|-------------------------
          Item                value                   Tolerance       Converged
          ---------------------------------------------------------------------
          Energy change      -0.0083063962            0.0000050000      NO
          RMS gradient        0.0103175416            0.0001000000      NO
          MAX gradient        0.0186594538            0.0003000000      NO
          RMS step            0.0521392703            0.0020000000      NO
          MAX step            0.0760652526            0.0040000000      NO
          ........................................................
          Max(Bonds)      0.0343      Max(Angles)    1.61
          Max(Dihed)        0.00      Max(Improp)    4.36
          ---------------------------------------------------------------------

The optimization has not yet converged - more geometry cycles are needed


    ---------------------------------------------------------------------------
                         Redundant Internal Coordinates
                            (Angstroem and degrees)

        Definition                    Value    dE/dq     Step     New-Value
    ----------------------------------------------------------------------------
     1. B(Cl  1,C   0)                1.7409  0.013350 -0.0343    1.7067   
     2. B(Cl  2,C   0)                1.7393  0.012847 -0.0321    1.7072   
     3. B(F   3,C   0)                1.3414  0.018659 -0.0311    1.3103   
     4. A(Cl  1,C   0,F   3)          112.15 -0.000977    1.28    113.43   
     5. A(Cl  2,C   0,F   3)          112.18 -0.003377    1.46    113.64   
     6. A(Cl  1,C   0,Cl  2)          115.90 -0.001906    1.61    117.51   
     7. I(Cl  1,F   3,Cl  2,C   0)    -43.09 -0.006142    4.36    -38.73   
    ----------------------------------------------------------------------------

         *************************************************************
         *                GEOMETRY OPTIMIZATION CYCLE   3            *
         *************************************************************
---------------------------------
CARTESIAN COORDINATES (ANGSTROEM)
---------------------------------
  C     -0.003088    0.094059    0.269852
  Cl     1.476971   -0.679790   -0.081223
  Cl    -1.438459   -0.761802   -0.079036
  F     -0.035423    1.347534   -0.110593

----------------------------
CARTESIAN COORDINATES (A.U.)
----------------------------
  NO LB      ZA    FRAG     MASS         X           Y           Z
   0 C     6.0000    0    12.011   -0.005835    0.177745    0.509947
   1 Cl   17.0000    0    35.453    2.791070   -1.284617   -0.153490
   2 Cl   17.0000    0    35.453   -2.718294   -1.439598   -0.149357
   3 F     9.0000    0    18.998   -0.066940    2.546470   -0.208990

--------------------------------
INTERNAL COORDINATES (ANGSTROEM)
--------------------------------
 C      0   0   0     0.000000000000     0.00000000     0.00000000
 Cl     1   0   0     1.706654364707     0.00000000     0.00000000
 Cl     1   2   0     1.707194391565   117.37357011     0.00000000
 F      1   2   3     1.310337406597   113.29269328   224.54623163

---------------------------
INTERNAL COORDINATES (A.U.)
---------------------------
 C      0   0   0     0.000000000000     0.00000000     0.00000000
 Cl     1   0   0     3.225109354557     0.00000000     0.00000000
 Cl     1   2   0     3.226129857424   117.37357011     0.00000000
 F      1   2   3     2.476178841501   113.29269328   224.54623163

------------------------------------------------------------------------------
                   ___                                                        
                  /   \      - P O W E R E D   B Y -                         
[...]
                           ORCA CP-SCF CALCULATION
------------------------------------------------------------------------------

Input orbitals are from        ... C-Cl-Cl-F_radical_EPR.gbw
Input Perturbation             ... C-Cl-Cl-F_radical_EPR.pin.tmp
Wavefunction output            ... C-Cl-Cl-F_radical_EPR.pout.tmp
Perturbation mode              ... Imaginary perturbation
Solver                         ... POPLE
Max. number of iterations      ... 64
Convergence tolerance          ... 1.000e-03
Integral handling              ... Direct
DFT GridXC                     ... 1
Number of perturbations        ... 3
Number of operators            ... 2
Orbital ranges used for CP-SCF:
 Operator 0:  Orbitals   0... 24  to  25...227
 Operator 1:  Orbitals   0... 23  to  24...227
Variables per perturbation     ... 9971
DFT calculation                         ... on
XC functional terms                     ... off
Hybrid DFT                              ... on
   Exchange mixing (SCF)                ...  0.250
   Exchange mixing (CP-SCF)             ...  0.250
   GGA exch. scaling(SCF)               ...  0.750
   GGA exch. scaling (CP-SCF)           ...  0.750
   GGA corr. scaling (SCF)              ...  1.000
   GGA corr. scaling (CP-SCF)           ...  1.000

CP-SCF GRID
-----------

General Integration Accuracy     IntAcc      ... 3.467
Radial Grid Type                 RadialGrid  ... OptM3 with GC (2021)
Angular Grid (max. ang.)         AngularGrid ... 1 (Lebedev-50)
Angular grid pruning method      GridPruning ... 4 (adaptive)
Weight generation scheme         WeightScheme... Becke
Basis function cutoff            BFCut       ... 1.0000e-11
Integration weight cutoff        WCut        ... 1.0000e-14
Angular grids for H and He will be reduced by one unit
Partially contracted basis set               ... off
Rotationally invariant grid construction     ... off

Total number of grid points                  ...     4629
Total number of batches                      ...       75
Average number of points per batch           ...       61
Average number of grid points per atom       ...     1157

Memory available               ... 850.3 MB
Memory needed per perturbation ...  11.5 MB
Perturbations treated per batch... 3
Number of batches              ... 1
     CP-SCF ITERATION   0:   1.3648e+00 (  18.9 sec   0/  3 done)
     CP-SCF ITERATION   1:   7.0453e-02 (  18.3 sec   0/  3 done)
     CP-SCF ITERATION   2:   7.9044e-03 (  18.4 sec   0/  3 done)
     CP-SCF ITERATION   3:   7.0512e-04 (  18.5 sec   3/  3 done)
                    *** THE CP-SCF HAS CONVERGED ***

Forming final perturbed densities           ... done
Transforming perturbed density to AO basis  ... done

 Raw HFC matrix (all values in MHz): 
 -----------------------------------
               415.8179               0.0091              -0.1723
                 0.0092             415.7437              11.2673
                -0.1711              11.2221             616.5980

 A(FC)         482.2601             482.2601             482.2601
 A(SD)         -68.3345             -66.6675             135.0019
 A(ORB+DIA)      1.1899               0.2256              -0.0364    A(PC) =   0.4597
 A(ORB)          1.1880               0.2236              -0.0361    A(PC) =   0.4585
 A(DIA)          0.0020               0.0020              -0.0002    A(PC) =   0.0012
             ----------           ----------           ----------
 A(Tot)        415.1156             415.8182             617.2257    A(iso)=  482.7198
 Orientation: 
  X          -0.0265465            0.9996472            0.0008517
  Y           0.9980869            0.0265527           -0.0558343
  Z          -0.0558372           -0.0006321           -0.9984397

Notes:  (1) The A matrix conforms to the "SAI" spin Hamiltonian convention.
        (2) Tensor is right-handed.

 -----------------------------------------------------------
 Nucleus   3F : A:ISTP=   19 I=  0.5 P=502.2248 MHz/au**3
                Q:ISTP=   19 I=  0.5 Q=  0.0000 barn     
 -----------------------------------------------------------
 Solving for nuclear perturbation:
Forming RHS of the CP-SCF equations         ... 
Calc. nucleus orbit integrals (SHARK)       ... done

------------------------------------------------------------------------------
                           ORCA CP-SCF CALCULATION
------------------------------------------------------------------------------

Input orbitals are from        ... C-Cl-Cl-F_radical_EPR.gbw
Input Perturbation             ... C-Cl-Cl-F_radical_EPR.pin.tmp
Wavefunction output            ... C-Cl-Cl-F_radical_EPR.pout.tmp
Perturbation mode              ... Imaginary perturbation
Solver                         ... POPLE
Max. number of iterations      ... 64
Convergence tolerance          ... 1.000e-03
Integral handling              ... Direct
DFT GridXC                     ... 1
Number of perturbations        ... 3
Number of operators            ... 2
Orbital ranges used for CP-SCF:
 Operator 0:  Orbitals   0... 24  to  25...227
 Operator 1:  Orbitals   0... 23  to  24...227
Variables per perturbation     ... 9971
DFT calculation                         ... on
XC functional terms                     ... off
Hybrid DFT                              ... on
   Exchange mixing (SCF)                ...  0.250
   Exchange mixing (CP-SCF)             ...  0.250
   GGA exch. scaling(SCF)               ...  0.750
   GGA exch. scaling (CP-SCF)           ...  0.750
   GGA corr. scaling (SCF)              ...  1.000
   GGA corr. scaling (CP-SCF)           ...  1.000

CP-SCF GRID
-----------

General Integration Accuracy     IntAcc      ... 3.467
Radial Grid Type                 RadialGrid  ... OptM3 with GC (2021)
Angular Grid (max. ang.)         AngularGrid ... 1 (Lebedev-50)
Angular grid pruning method      GridPruning ... 4 (adaptive)
Weight generation scheme         WeightScheme... Becke
Basis function cutoff            BFCut       ... 1.0000e-11
Integration weight cutoff        WCut        ... 1.0000e-14
Angular grids for H and He will be reduced by one unit
Partially contracted basis set               ... off
Rotationally invariant grid construction     ... off

Total number of grid points                  ...     4629
Total number of batches                      ...       75
Average number of points per batch           ...       61
Average number of grid points per atom       ...     1157

Memory available               ... 849.9 MB
Memory needed per perturbation ...  11.5 MB
Perturbations treated per batch... 3
Number of batches              ... 1
     CP-SCF ITERATION   0:   3.1460e+00 (  19.0 sec   0/  3 done)
     CP-SCF ITERATION   1:   1.5003e-01 (  17.8 sec   0/  3 done)
     CP-SCF ITERATION   2:   1.6673e-02 (  18.1 sec   0/  3 done)
     CP-SCF ITERATION   3:   2.0198e-03 (  17.4 sec   2/  3 done)
     CP-SCF ITERATION   4:   1.8627e-04 (  11.3 sec   3/  3 done)
                    *** THE CP-SCF HAS CONVERGED ***

Forming final perturbed densities           ... done
Transforming perturbed density to AO basis  ... done

 Raw HFC matrix (all values in MHz): 
 -----------------------------------
                59.3017               0.7023               1.2555
                 0.7025              32.9512             -33.0556
                 1.2326             -32.2282             591.7060

 A(FC)         224.9806             224.9806             224.9806
 A(SD)        -197.8881            -170.9675             368.8556
 A(ORB+DIA)      3.9375               5.3070              -0.2273    A(PC) =   3.0057
 A(ORB)          3.9339               5.3060              -0.2262    A(PC) =   3.0045
 A(DIA)          0.0036               0.0009              -0.0011    A(PC) =   0.0011
             ----------           ----------           ----------
 A(Tot)         31.0299              59.3201             593.6089    A(iso)=  227.9863
 Orientation: 
  X          -0.0274689            0.9996201           -0.0022681
  Y           0.9978866            0.0275547            0.0588484
  Z           0.0588885           -0.0006468           -0.9982644

Notes:  (1) The A matrix conforms to the "SAI" spin Hamiltonian convention.
        (2) Tensor is right-handed.

 -----------------------------------------------------------
 Nucleus   1Cl: A:ISTP=   35 I=  1.5 P= 52.3376 MHz/au**3
                Q:ISTP=   35 I=  1.5 Q= -0.0817 barn     
 -----------------------------------------------------------
 Solving for nuclear perturbation:
Forming RHS of the CP-SCF equations         ... 
Calc. nucleus orbit integrals (SHARK)       ... done

------------------------------------------------------------------------------
                           ORCA CP-SCF CALCULATION
------------------------------------------------------------------------------

Input orbitals are from        ... C-Cl-Cl-F_radical_EPR.gbw
Input Perturbation             ... C-Cl-Cl-F_radical_EPR.pin.tmp
Wavefunction output            ... C-Cl-Cl-F_radical_EPR.pout.tmp
Perturbation mode              ... Imaginary perturbation
Solver                         ... POPLE
Max. number of iterations      ... 64
Convergence tolerance          ... 1.000e-03
Integral handling              ... Direct
DFT GridXC                     ... 1
Number of perturbations        ... 3
Number of operators            ... 2
Orbital ranges used for CP-SCF:
 Operator 0:  Orbitals   0... 24  to  25...227
 Operator 1:  Orbitals   0... 23  to  24...227
Variables per perturbation     ... 9971
DFT calculation                         ... on
XC functional terms                     ... off
Hybrid DFT                              ... on
   Exchange mixing (SCF)                ...  0.250
   Exchange mixing (CP-SCF)             ...  0.250
   GGA exch. scaling(SCF)               ...  0.750
   GGA exch. scaling (CP-SCF)           ...  0.750
   GGA corr. scaling (SCF)              ...  1.000
   GGA corr. scaling (CP-SCF)           ...  1.000

CP-SCF GRID
-----------

General Integration Accuracy     IntAcc      ... 3.467
Radial Grid Type                 RadialGrid  ... OptM3 with GC (2021)
Angular Grid (max. ang.)         AngularGrid ... 1 (Lebedev-50)
Angular grid pruning method      GridPruning ... 4 (adaptive)
Weight generation scheme         WeightScheme... Becke
Basis function cutoff            BFCut       ... 1.0000e-11
Integration weight cutoff        WCut        ... 1.0000e-14
Angular grids for H and He will be reduced by one unit
Partially contracted basis set               ... off
Rotationally invariant grid construction     ... off

Total number of grid points                  ...     4629
Total number of batches                      ...       75
Average number of points per batch           ...       61
Average number of grid points per atom       ...     1157

Memory available               ... 849.9 MB
Memory needed per perturbation ...  11.5 MB
Perturbations treated per batch... 3
Number of batches              ... 1
     CP-SCF ITERATION   0:   5.4429e+00 (  18.6 sec   0/  3 done)
     CP-SCF ITERATION   1:   3.9214e-01 (  17.0 sec   0/  3 done)
     CP-SCF ITERATION   2:   4.5313e-02 (  17.2 sec   0/  3 done)
     CP-SCF ITERATION   3:   4.9987e-03 (  17.4 sec   0/  3 done)
     CP-SCF ITERATION   4:   4.6758e-04 (  17.3 sec   3/  3 done)
                    *** THE CP-SCF HAS CONVERGED ***

Forming final perturbed densities           ... done
Transforming perturbed density to AO basis  ... done

 Raw HFC matrix (all values in MHz): 
 -----------------------------------
                 6.4548              -1.4181             -18.8937
                -1.3481               9.9794              14.7569
               -18.8052              14.7410              63.1898

 A(FC)          26.3762              26.3762              26.3762
 A(SD)         -27.2603             -18.7691              46.0293
 A(ORB+DIA)      0.4737               0.1553              -0.1335    A(PC) =   0.1651
 A(ORB)          0.4735               0.1553              -0.1335    A(PC) =   0.1651
 A(DIA)          0.0002               0.0000              -0.0001    A(PC) =   0.0000
             ----------           ----------           ----------
 A(Tot)         -0.4105               7.7624              72.2720    A(iso)=   26.5413
 Orientation: 
  X          -0.8697702            0.4109850            0.2731139
  Y           0.3567587            0.9061053           -0.2273686
  Z          -0.3409151           -0.1003226           -0.9347258

Notes:  (1) The A matrix conforms to the "SAI" spin Hamiltonian convention.
        (2) Tensor is right-handed.

 -----------------------------------------------------------
 Nucleus   2Cl: A:ISTP=   35 I=  1.5 P= 52.3376 MHz/au**3
                Q:ISTP=   35 I=  1.5 Q= -0.0817 barn     
 -----------------------------------------------------------
 Solving for nuclear perturbation:
Forming RHS of the CP-SCF equations         ... 
Calc. nucleus orbit integrals (SHARK)       ... done

------------------------------------------------------------------------------
                           ORCA CP-SCF CALCULATION
------------------------------------------------------------------------------

Input orbitals are from        ... C-Cl-Cl-F_radical_EPR.gbw
Input Perturbation             ... C-Cl-Cl-F_radical_EPR.pin.tmp
Wavefunction output            ... C-Cl-Cl-F_radical_EPR.pout.tmp
Perturbation mode              ... Imaginary perturbation
Solver                         ... POPLE
Max. number of iterations      ... 64
Convergence tolerance          ... 1.000e-03
Integral handling              ... Direct
DFT GridXC                     ... 1
Number of perturbations        ... 3
Number of operators            ... 2
Orbital ranges used for CP-SCF:
 Operator 0:  Orbitals   0... 24  to  25...227
 Operator 1:  Orbitals   0... 23  to  24...227
Variables per perturbation     ... 9971
DFT calculation                         ... on
XC functional terms                     ... off
Hybrid DFT                              ... on
   Exchange mixing (SCF)                ...  0.250
   Exchange mixing (CP-SCF)             ...  0.250
   GGA exch. scaling(SCF)               ...  0.750
   GGA exch. scaling (CP-SCF)           ...  0.750
   GGA corr. scaling (SCF)              ...  1.000
   GGA corr. scaling (CP-SCF)           ...  1.000

CP-SCF GRID
-----------

General Integration Accuracy     IntAcc      ... 3.467
Radial Grid Type                 RadialGrid  ... OptM3 with GC (2021)
Angular Grid (max. ang.)         AngularGrid ... 1 (Lebedev-50)
Angular grid pruning method      GridPruning ... 4 (adaptive)
Weight generation scheme         WeightScheme... Becke
Basis function cutoff            BFCut       ... 1.0000e-11
Integration weight cutoff        WCut        ... 1.0000e-14
Angular grids for H and He will be reduced by one unit
Partially contracted basis set               ... off
Rotationally invariant grid construction     ... off

Total number of grid points                  ...     4629
Total number of batches                      ...       75
Average number of points per batch           ...       61
Average number of grid points per atom       ...     1157

Memory available               ... 849.9 MB
Memory needed per perturbation ...  11.5 MB
Perturbations treated per batch... 3
Number of batches              ... 1
     CP-SCF ITERATION   0:   5.3781e+00 (  18.7 sec   0/  3 done)
     CP-SCF ITERATION   1:   3.9049e-01 (  17.2 sec   0/  3 done)
     CP-SCF ITERATION   2:   4.4696e-02 (  17.4 sec   0/  3 done)
     CP-SCF ITERATION   3:   5.0012e-03 (  17.6 sec   0/  3 done)
     CP-SCF ITERATION   4:   4.6329e-04 (  17.6 sec   3/  3 done)
                    *** THE CP-SCF HAS CONVERGED ***

Forming final perturbed densities           ... done
Transforming perturbed density to AO basis  ... done

 Raw HFC matrix (all values in MHz): 
 -----------------------------------
                 6.3635               1.2391              18.1338
                 1.1691              10.1205              15.7743
                18.0463              15.7534              63.1450

 A(FC)          26.3779              26.3779              26.3779
 A(SD)         -27.2633             -18.7708              46.0340
 A(ORB+DIA)      0.4744               0.1544              -0.1335    A(PC) =   0.1651
 A(ORB)          0.4742               0.1544              -0.1335    A(PC) =   0.1651
 A(DIA)          0.0002               0.0000              -0.0001    A(PC) =   0.0000
             ----------           ----------           ----------
 A(Tot)         -0.4110               7.7615              72.2784    A(iso)=   26.5430
 Orientation: 
  X           0.8477547            0.4614460           -0.2614949
  Y           0.4052069           -0.8816002           -0.2420504
  Z          -0.3422271            0.0992399           -0.9343618

Notes:  (1) The A matrix conforms to the "SAI" spin Hamiltonian convention.
        (2) Tensor is right-handed.


--------------------------------------------------------------------------------
----------------------------------------------------------------------------
                           ORCA EULER ANGLE PROGRAM
----------------------------------------------------------------------------

Only g-tensor available        -->  using g-tensor as reference tensor

Reference tensor               ...  g

g-tensor ordering              ...  |g_min> --> |gx>
                                    |g_mid> --> |gy>
                                    |g_max> --> |gz>

A- and EFG-tensor ordering     ...  the axes |Ax>, |Qx>, |Ay>, etc. are assigned
                                    such that the Euler rotation is minimal. You
                                    can find the respective eigenvalues as Ax,
                                    EFGx, Ay, etc. in the tables below.
                                    The relation of |Ax>, |Ay>,  etc. to Amin, Amid, etc.
                                    (as printed in the ORCA EPR/NMR CALCULATION Output)
                                    is obtained in the detailed printout.

Euler rotation around          ...  z - y - z
   First rotation              -->  by alpha around z
   Second rotation             -->  by beta around y'
   Third rotation              -->  by gamma around z''
   Positive / Negative angle   -->  clockwise / counterclockwise rotation

Plot EFG-tensors                    (-)
Plot HFC-tensors                    (-)
Detailed Printout                   (-)

-------------------------------------------------------------------------
          Euler rotation of hyperfine tensor to g-tensor
-------------------------------------------------------------------------

-------------------------------------------------------------------
 Atom  |   Alpha    Beta    Gamma   |   Ax       Ay       Az 
       |          [degrees]         |           [MHz]         
-------------------------------------------------------------------
  0C       -0.5      5.5      0.5     617.23   415.82   415.12
  3F        0.0     12.0     -0.1     593.61    59.32    31.03
  1Cl    -102.1     25.9     85.3      72.27    -0.41     7.76
  2Cl     102.0     26.0    -85.3      72.28    -0.41     7.76
-------------------------------------------------------------------


Maximum memory used throughout the entire EPRNMR-calculation: 193.5 MB

Timings for individual modules:

Sum of individual times         ...      653.039 sec (=  10.884 min)
GTO integral calculation        ...        0.391 sec (=   0.007 min)   0.1 %
Spin-Orbit-Coupling Matrices    ...      105.666 sec (=   1.761 min)  16.2 %
SCF iterations                  ...       14.010 sec (=   0.233 min)   2.1 %
EPR/NMR calculation             ...      532.972 sec (=   8.883 min)  81.6 %



                             ****ORCA TERMINATED NORMALLY****
TOTAL RUN TIME: 0 days 0 hours 22 minutes 41 seconds 169 msec

slurmID:    30883855
totalRuntime[s]:    1361.238047660
